666
Atoms. Timestep: 1000
1 5.63101 1.38018 2.01895
1 0.720067 2.37797 7.81119
1 4.98912 6.47427 6.16057
1 1.92605 7.08874 7.12187
1 6.25633 6.97303 0.702699
1 3.14973 3.11959 3.36286
1 2.90386 5.05887 1.83159
1 7.91938 5.20139 9.89106
1 4.99499 6.88946 8.86158
1 3.46247 6.44255 7.72234
1 4.7399 1.37275 0.398657
1 6.30476 6.56042 7.81873
1 3.61285 0.657994 9.90599
1 8.86116 2.37563 6.02501
1 4.91938 6.49893 4.27798
1 2.3779 2.78509 4.03937
1 1.69824 2.87429 0.0445963
1 2.30201 2.49772 2.14031
1 0.837068 6.93622 3.77785
1 2.10961 4.24817 9.36495
1 4.99266 5.24692 7.48683
1 5.85586 5.32087 2.21947
1 6.50703 1.53451 9.76584
1 7.27814 3.05276 1.86821
1 1.41995 2.13415 3.50136
1 5.20572 2.68379 3.4764
1 4.20279 0.886195 1.12993
1 0.739622 4.56013 2.23728
1 2.54653 6.60672 8.38798
1 6.0322 0.5679 4.73268
1 7.50306 4.15084 7.92599
1 -1.12178 5.55117 0.251921
1 -0.186242 5.10207 0.285648
1 8.92825 1.63209 8.07803
1 3.54675 2.89357 9.71527
1 4.71212 4.17495 1.01737
1 6.47537 1.97704 1.98632
1 7.80058 1.10691 4.78162
1 0.456687 5.79084 6.79748
1 8.94264 1.12813 9.04891
1 0.970811 4.05471 4.52812
1 5.55069 1.40129 9.32487
1 8.01881 3.73981 9.83148
1 6.00179 4.42189 0.417353
1 2.56969 2.16435 3.20648
1 1.53379 5.79133 2.54183
1 6.99587 6.42867 0.472599
1 4.0729 2.80046 6.94109
1 5.58971 3.80041 1.23188
1 4.05447 4.02249 4.69221
1 5.4147 0.705819 0.837521
1 7.06369 1.82908 3.63317
1 8.90805 1.81183 7.01846
1 1.95699 2.68692 5.82702
1 0.97176 5.26733 5.16919
1 0.947432 2.50275 2.59362
1 2.17106 5.05068 7.65286
1 0.0803967 5.18961 8.19555
1 2.5719 4.80644 3.95178
1 -0.352343 3.1756 1.8143
1 -0.551334 6.47946 4.88564
1 0.519995 3.35753 8.11852
1 5.26912 3.86963 8.83198
1 6.46426 5.77587 6.6361
1 2.82952 2.24689 9.58666
1 3.8113 1.79767 9.74246
1 -0.0492918 1.13276 0.375643
1 6.2018 3.43052 0.462851
1 6.22266 6.6497 5.91314
1 0.824964 3.72104 0.428269
1 4.20291 7.02699 5.35946
1 -0.889982 4.73991 0.992209
1 0.816482 2.35289 0.152325
1 -0.794771 6.8236 0.777185
1 3.55393 5.69244 6.84007
1 0.61576 0.331996 2.40793
1 0.614292 4.25011 9.01868
1 7.98884 1.6431 7.51584
1 1.18735 1.07302 9.43173
1 5.30826 6.63789 9.80282
1 4.11386 1.70539 3.21987
1 1.4948 7.28423 4.50822
1 5.79786 1.84981 6.96854
1 6.44132 1.13017 1.22409
1 2.39858 1.78366 4.13869
1 5.27393 3.0883 5.2089
1 6.03211 5.63332 0.100146
1 6.07097 5.31903 3.17721
1 4.12312 1.82953 5.09199
1 4.79505 5.64433 1.63788
1 1.76731 4.80579 2.306
1 1.47652 1.22983 6.72624
1 0.903107 5.57472 9.16554
1 0.221329 6.6298 0.234776
1 2.60105 2.74278 4.99545
1 4.09683 2.75161 1.56726
1 7.15344 6.22133 6.07878
1 4.37307 7.72737 8.30713
1 6.94957 7.53564 6.01974
1 7.15705 0.6698 0.557765
1 8.8318 0.82783 3.10002
1 0.359488 3.81713 7.26585
1 6.48283 5.95691 1.33417
1 -0.253445 5.36336 4.78008
1 3.93158 6.63626 4.25489
1 5.88266 7.03812 2.89139
1 8.12382 2.73385 6.82537
1 1.78819 1.66216 2.42488
1 3.40027 3.70448 8.04747
1 0.422305 7.07948 4.76674
1 6.33024 2.76922 3.3501
1 -0.194072 7.00048 3.94346
1 7.31712 2.76005 7.76528
1 1.37835 3.85438 2.56706
1 5.39514 5.63835 9.133
1 6.26598 7.54813 5.16994
1 3.30327 0.997997 1.64455
1 6.38236 1.40303 8.81102
1 2.11299 1.19864 3.2532
1 0.640887 1.97897 9.46199
1 1.10307 0.662483 8.51092
1 -0.902922 5.26536 1.988
1 2.11277 3.08517 9.14746
1 5.52751 6.11607 6.97539
1 7.36745 7.5139 9.68027
1 7.1607 4.47538 9.48701
1 0.713034 7.03 7.94545
1 0.898241 1.15924 7.65091
1 -0.130455 2.18084 2.33078
1 3.16442 2.17984 6.90002
1 4.27929 4.48242 7.80913
1 6.68367 4.65146 4.6517
1 7.72052 1.99647 2.13963
1 7.53445 5.18539 4.15664
1 8.73182 1.58293 4.8817
1 4.42224 0.897397 5.64427
1 3.79102 5.04099 5.03214
1 6.76915 5.19528 0.637819
1 2.26239 3.28374 7.92142
1 5.50349 7.18512 6.84268
1 7.67933 3.96678 8.83505
1 6.74116 2.51608 4.52304
1 -0.332851 5.92503 0.920389
1 7.45657 3.91801 3.38813
1 8.44005 4.56718 6.0757
1 6.9319 3.36474 9.49053
1 6.17762 0.990874 5.65018
1 1.49921 1.22033 4.12244
1 6.49819 1.76904 6.18827
1 0.296958 7.38101 8.87658
1 -0.0998387 5.51277 9.21206
1 6.03759 6.60676 9.15645
1 4.42657 2.46365 8.06635
1 0.687701 6.52517 9.55789
1 5.07776 4.46564 6.34986
1 1.30388 3.67505 9.75302
1 3.80753 5.06372 8.94666
1 5.38794 2.19999 2.56089
1 5.93039 4.99311 6.18182
1 0.766407 1.55501 2.2195
1 1.78905 6.04345 5.44115
1 6.34066 7.38899 8.76985
1 0.271295 5.39629 5.91073
1 4.23814 1.3923 8.25404
1 5.96001 3.73752 3.44489
1 3.14779 4.83638 5.95821
1 7.07456 2.4656 2.77075
1 3.14291 6.64681 2.43971
1 2.21969 2.27904 6.73293
1 8.19058 1.96169 9.64286
1 0.446285 2.89217 6.88778
1 2.91242 6.93302 5.7355
1 7.43223 0.316658 2.05584
1 4.72496 1.22883 2.42665
1 5.22827 0.514386 1.97403
1 4.59019 6.69854 0.657611
1 6.7957 0.268617 3.10193
1 5.87625 3.22149 8.40124
1 0.980977 7.09146 0.753934
1 0.538933 6.94238 6.92221
1 1.26164 7.34888 9.10791
1 7.04118 0.95777 6.59676
1 1.71559 4.44367 0.10284
1 2.23127 0.432753 1.3718
1 2.56481 1.78587 8.71382
1 8.07522 4.59427 3.44478
1 2.85719 2.85495 6.1137
1 5.40557 2.10958 8.34453
1 3.26854 1.30207 7.83982
1 7.29365 7.78705 8.24897
1 5.34554 5.15365 0.867571
1 2.33964 0.856636 6.186
1 1.22986 4.6578 3.31862
1 7.69527 6.90719 6.54628
1 6.80807 1.9622 0.918081
1 5.64704 1.85236 0.966242
1 6.4671 2.54359 9.93737
1 4.03491 5.48433 7.85093
1 5.92944 3.36114 9.55066
1 5.45686 1.53847 5.98541
1 3.56258 2.03594 8.83035
1 6.16135 4.63662 1.54257
1 6.28376 2.76694 1.21401
1 1.82744 6.41856 0.926631
1 3.32369 4.22361 2.16297
1 4.03823 3.76853 3.63355
1 8.03129 5.2086 7.61435
1 2.34091 4.2753 8.38824
1 8.08541 3.24706 8.18873
1 4.8897 0.337927 3.08439
1 5.80594 4.89383 4.10935
1 -0.254901 6.9656 8.00493
1 4.36756 6.95148 9.69685
1 3.45563 1.19478 5.57623
1 7.17056 5.68004 8.13419
1 8.44286 2.53849 3.90252
1 0.28361 4.18994 3.43427
1 7.12037 4.78161 1.60352
1 -0.177936 7.51221 6.56359
1 3.24066 3.52416 5.24657
1 3.06816 2.31395 1.5741
1 3.83786 1.08628 0.117016
1 3.00091 3.15227 7.16256
1 2.13166 3.44754 6.66786
1 0.37959 6.21442 5.31924
1 4.42892 0.937755 9.26948
1 1.85477 1.40599 8.05018
1 4.78701 5.10894 5.48874
1 -0.201159 2.23669 0.265353
1 3.95265 1.69042 7.18197
1 4.70711 1.79893 1.51492
1 4.2025 2.79446 3.52985
1 8.47909 2.42879 7.72969
1 7.39215 1.14399 5.69445
1 7.21302 6.06953 7.17044
1 5.76712 7.53988 6.03465
1 1.4187 6.03837 7.06005
1 4.26271 4.94134 3.38198
1 2.97379 3.80654 4.2418
1 3.0924 0.202268 3.37914
1 4.86852 3.60645 3.04732
1 5.81612 3.83957 2.27236
1 0.77262 5.28156 4.16649
1 7.72804 1.79357 6.48107
1 0.449541 7.11323 2.24542
1 2.82111 2.79139 8.55438
1 -0.0857299 4.41227 4.57389
1 0.225064 6.38826 3.15448
1 1.48787 4.81229 8.58337
1 5.69156 4.84424 5.15941
1 3.73105 6.75575 8.84317
1 2.11058 4.97662 5.54523
1 0.791441 4.8815 0.664337
1 8.1619 6.07365 8.36432
1 0.0818414 7.83425 7.63656
1 0.0102373 5.16733 1.42181
1 4.48978 3.29452 0.819804
1 6.42381 3.17548 5.21557
1 5.82417 4.80917 8.46463
1 5.81883 0.866849 6.56812
1 0.668604 1.68727 0.924265
1 3.47542 6.28879 5.1262
1 1.21995 6.31419 4.55411
1 8.27275 3.85401 5.22777
1 8.12619 5.51538 6.60543
1 0.896909 0.24869 3.58414
1 8.01132 2.62299 1.17568
1 6.42794 0.458172 7.30847
1 4.9556 4.24247 3.73708
1 4.75053 5.10721 8.51379
1 4.42155 6.05008 8.90104
1 1.1417 5.96188 3.57719
1 -0.90048 4.37673 0.121862
1 3.21908 0.871114 4.53078
1 4.12919 3.98151 8.72032
1 4.18677 3.62228 9.77035
1 7.80806 1.59162 0.554464
1 0.768795 2.22556 4.28787
1 8.65435 2.62487 4.88896
1 7.08689 1.38191 2.6612
1 3.28711 4.1839 3.25195
1 5.11329 3.92032 9.84715
1 5.74033 0.899055 2.97413
1 8.03755 0.437411 0.18457
1 0.52427 2.53068 1.63212
1 7.62857 4.12621 2.16097
1 4.00191 5.35176 6.01935
1 2.64077 0.659295 8.38379
1 1.79415 7.54038 8.10797
1 -0.685739 5.76356 5.67803
1 7.56704 2.30775 -0.025565
1 7.27065 0.902484 4.00887
1 7.157 6.8736 5.28651
1 6.68009 4.63047 3.61853
1 3.72149 1.76586 0.971341
1 4.15268 5.72131 4.17372
1 4.11972 6.58451 1.49527
1 6.37512 2.25215 8.20254
1 2.76022 3.36441 0.693682
1 4.90316 5.26948 2.67284
1 5.69248 1.9187 4.12958
1 3.65542 7.11252 0.32546
1 1.35011 0.983702 1.24758
1 4.80024 3.42085 6.16104
1 4.57427 0.343752 0.25307
1 4.53533 6.73598 7.96609
1 0.672426 5.36812 2.85982
1 5.43133 7.12361 7.97103
1 0.811627 6.03513 0.951336
1 2.83028 7.34738 7.5592
1 1.05303 5.65841 8.13482
1 7.72392 3.89604 6.20085
1 1.3739 4.23613 5.45303
1 1.69114 1.96165 0.568789
1 2.62905 4.081 7.38841
1 2.61264 6.0465 7.4751
1 1.49724 3.05934 5.07153
1 5.22866 4.69249 1.80615
1 0.172672 6.64775 1.36694
1 7.00977 2.28061 9.02263
1 0.92672 2.3232 5.47079
1 4.47049 2.30518 0.58736
1 2.76608 4.60923 4.91124
1 3.89191 1.72707 2.0683
1 4.81886 3.56057 1.97965
1 7.94882 2.01706 5.52137
1 4.43902 3.43792 7.92843
1 6.47599 6.27099 2.71782
1 8.05016 0.786316 6.57376
1 0.402717 4.38403 5.49908
1 1.42212 3.01527 4.15324
1 6.28355 5.59656 7.62813
1 1.82071 4.63798 1.03054
1 6.26121 5.79824 8.62862
1 0.361554 6.39495 8.60953
1 2.75605 6.31529 3.27083
1 8.46673 1.62044 1.40112
1 2.83655 6.00587 1.39714
1 3.17973 6.8934 9.68551
1 0.186644 3.01581 2.95442
1 2.8392 4.29956 1.096
1 -0.0209421 4.25707 0.822096
1 6.27818 2.83938 7.36402
1 2.69074 0.543738 2.45464
1 3.14078 0.574235 0.703272
1 2.17282 7.57767 6.13799
1 4.99017 1.71563 7.60913
1 6.68944 3.45223 6.15654
1 7.42698 1.46198 9.2316
1 7.99785 1.89542 3.06615
1 4.3377 3.21988 5.15213
1 4.14003 4.31306 5.85476
1 1.40003 7.39749 1.7818
1 4.32863 1.42295 4.21744
1 6.96025 0.422524 4.97509
1 8.85842 2.43762 8.846
1 6.017 6.76034 1.8576
1 8.41003 4.47318 9.32072
1 7.05182 5.00681 7.34755
1 4.89913 3.36229 4.2012
1 5.42526 4.06696 7.89128
1 8.17434 4.29694 7.10312
1 7.44578 0.736659 7.51111
1 4.67797 6.64005 3.21562
1 3.99763 7.23941 2.65804
1 5.71221 4.00152 4.55865
1 1.06678 1.09738 0.192134
1 -0.893183 6.25614 3.8473
1 7.08846 5.55456 9.41694
1 5.83248 4.79882 7.27129
1 0.333771 1.99887 3.38655
1 2.05841 0.987413 0.427283
1 2.74723 3.49773 2.49989
1 7.85303 3.0107 9.16169
1 5.2411 2.92594 7.60717
1 6.33935 3.98105 8.87348
1 3.18142 3.25692 1.61469
1 -0.269853 5.54935 3.33476
1 3.9498 3.40909 2.56508
1 3.88247 6.51448 6.2654
1 5.01785 5.52896 3.80299
1 5.78723 6.18648 3.76016
1 3.17325 7.68048 6.65774
1 2.53235 5.78051 2.4634
1 0.552549 3.46152 2.03399
1 4.30954 4.50377 0.0723922
1 4.25168 0.416172 1.98464
1 3.76829 5.16771 2.48988
1 1.58934 6.42046 8.97771
1 3.62535 4.749 4.14183
1 5.22737 1.11493 8.45678
1 7.12774 6.57894 2.14084
1 8.39714 0.316513 4.2135
1 -0.229759 4.8093 2.61175
1 4.89425 7.50861 4.05027
1 1.24857 5.26661 6.17131
1 2.14668 2.70315 1.07102
1 7.41097 5.85311 4.85552
1 1.49299 2.08073 1.58762
1 1.96125 4.48729 6.61201
1 6.56323 2.36839 0.131748
1 0.351734 3.32949 5.3957
1 1.02385 3.48591 3.36272
1 0.947265 1.3182 5.03366
1 7.12625 2.63515 6.67499
1 6.89667 1.53089 4.71253
1 6.47197 4.49833 2.52135
1 2.22525 7.28531 1.13582
1 0.112889 3.08264 0.846587
1 1.34584 0.739904 5.80996
1 4.98639 2.44054 6.67816
1 2.27398 5.47621 6.46666
1 -0.0927195 3.60359 6.22916
1 -0.428171 3.49898 3.7495
1 3.16839 7.13759 1.43569
1 -0.652277 6.85079 2.80931
1 1.23821 5.00736 7.25364
1 3.95824 3.84173 1.52447
1 7.09368 7.17523 3.07365
1 2.01731 5.53338 1.59059
1 7.71724 0.675615 3.01526
1 6.44493 3.85406 7.82683
1 4.66488 2.46832 4.46319
1 6.61053 4.50529 5.68144
1 3.07239 5.89285 6.03651
1 2.27383 7.28945 2.89166
1 0.375141 7.68419 9.85366
1 7.31734 1.28788 1.62361
1 2.00016 5.40623 3.33496
1 3.78852 3.24734 6.15807
1 7.87273 6.22219 9.56373
1 3.4048 1.04686 6.56545
1 7.11395 0.627361 8.50393
1 7.21753 3.7878 5.28485
1 3.13883 1.2436 3.53796
1 5.37498 6.21469 1.08362
1 2.64868 5.50781 0.469498
1 2.65742 1.1659 9.54192
1 0.171457 6.08216 4.14141
1 3.93392 7.38129 3.64835
1 9.32406 0.749896 6.53993
1 7.23903 3.54946 7.10412
1 0.172321 7.53921 3.08283
1 -0.571919 6.37202 7.22826
1 5.26006 0.754341 7.49678
1 5.76191 7.17027 4.37575
1 2.16377 0.5114 4.1541
1 5.42578 4.49464 2.87145
1 3.10802 6.70189 6.8385
1 4.8059 2.97601 8.94626
1 0.365347 0.774922 1.37222
1 8.19939 1.41034 3.94099
1 -1.03913 5.86224 2.74113
1 1.03633 1.27421 3.19544
1 2.83968 4.50293 0.0568941
1 7.75761 4.1301 4.37747
1 2.2516 6.76052 2.02963
1 6.62689 3.62051 4.29046
1 2.44113 2.29609 7.77246
1 -0.416794 3.83969 2.77788
1 6.91904 4.20519 0.869864
1 8.03507 0.984261 8.37669
1 6.63652 7.46046 2.21527
1 7.56142 7.2064 4.44672
1 6.22579 1.7703 3.04257
1 8.52381 4.28489 8.16219
1 3.59741 6.07668 0.656928
1 7.35505 4.86887 6.33786
1 1.54029 0.718118 2.26674
1 3.56106 2.04465 3.99659
1 1.0287 5.32193 1.57702
1 1.4622 3.64235 8.45189
1 5.22751 1.6248 3.36466
1 7.86318 7.06357 8.88712
1 6.87999 5.52543 2.12705
1 0.309986 6.13854 7.69562
1 2.78387 1.92822 0.651669
1 6.94638 3.22595 8.50719
1 -0.166179 4.13696 1.83016
1 1.03668 4.13963 1.38965
1 1.16441 7.76158 7.26441
1 8.03613 0.487547 1.25874
1 1.60727 4.14236 7.62098
1 1.6295 2.52406 8.34953
1 5.31844 7.26541 1.19271
1 5.00763 5.45287 6.42928
1 7.28848 6.72872 8.03698
1 3.37653 2.44705 2.63141
1 1.56188 7.01025 5.4644
1 3.79154 6.31942 3.30605
1 0.668596 4.35602 6.49173
1 1.59993 6.56393 7.98146
1 6.21332 0.333866 0.338292
1 7.93363 2.14889 8.54683
1 2.04478 5.68651 4.34626
1 7.15212 3.27367 0.802888
1 4.58646 6.0456 5.2473
1 6.89973 4.81944 8.47777
1 2.08167 4.06838 3.48707
1 2.29827 1.47411 1.51526
1 2.34228 3.77727 5.62199
1 7.01745 2.40699 5.42251
1 1.99046 6.61971 3.72835
1 7.97216 3.69426 1.13857
1 2.68097 6.65925 0.555598
1 3.55492 5.96239 9.47023
1 4.97124 4.12127 5.30002
1 3.90945 1.98704 6.21193
1 6.43222 7.51311 7.70764
1 7.05027 5.78311 3.45499
1 2.44309 1.34781 7.19317
1 3.16318 7.45388 8.59357
1 4.616 5.90821 9.89704
1 5.21618 3.63357 0.161768
1 4.59545 2.01316 8.96049
1 0.764361 4.50612 8.03603
1 6.3273 1.321 0.254372
1 6.31102 6.44256 4.89438
1 4.44753 4.39947 2.56821
1 2.38367 7.63259 4.96366
1 1.23004 3.42315 6.13318
1 1.97418 7.29651 0.030302
1 5.94015 2.69741 6.18774
1 -0.0720841 6.45701 6.25439
1 7.85041 7.4634 7.38692
1 6.09749 1.24941 7.87852
1 5.97826 2.18316 5.31993
1 1.69168 6.24801 9.9684
1 3.78048 3.8042 6.97987
1 0.962586 3.00063 9.0406
1 5.43062 2.77675 0.605944
1 0.0569099 5.86634 2.18787
1 1.88962 5.32585 9.4981
1 6.59292 3.67701 1.64259
1 3.50719 0.816901 8.87639
1 1.59841 5.47856 0.577653
1 3.54413 3.78328 0.448422
1 5.80791 3.72576 5.82515
1 3.65321 0.867298 2.68638
1 3.00484 3.91739 6.31253
1 0.654081 1.57065 6.00092
1 4.22423 4.80537 6.77157
1 4.60341 4.81666 4.53374
1 1.2187 7.39273 6.31854
1 3.80496 7.7466 9.42121
1 7.19169 1.61144 8.22903
1 3.75833 2.99192 8.73797
1 5.51074 5.71176 4.64135
1 5.50276 6.63706 0.0713771
1 4.0841 0.596567 3.81475
1 2.88828 1.48651 2.54177
1 3.31179 7.31872 4.86019
1 -0.685368 7.20226 5.66209
1 3.22763 5.83558 8.48825
1 7.54809 5.77767 1.20049
1 6.64157 6.88426 6.793
1 1.21344 4.73771 9.73077
1 3.29411 5.42742 3.33059
1 2.03073 3.84487 4.68875
1 1.42736 6.76214 2.86503
1 5.33655 6.7669 5.30142
1 9.07657 0.482377 5.2145
1 4.01322 7.23639 7.01183
1 6.2042 4.94757 9.43294
1 2.14922 6.50153 6.3115
1 -0.255404 6.98365 9.61134
1 7.28451 2.93559 3.78211
1 6.74327 3.56297 2.73199
1 1.19337 2.86346 0.998607
1 2.37363 6.54753 4.80713
1 1.67395 4.80851 4.52192
1 5.65259 7.57249 9.53492
1 1.33005 0.409318 4.73156
1 7.74439 4.78201 5.3211
1 6.03544 2.8693 2.2603
1 7.87132 5.12951 8.69306
1 3.03924 1.79261 4.91229
1 7.65595 3.11393 4.72242
1 8.73412 0.90981 7.35412
1 5.43276 6.09466 2.66423
1 0.398537 1.11986 4.09927
1 1.45352 3.10922 7.29917
1 6.15498 5.76554 9.87879
1 1.11451 6.41322 1.83266
1 3.25099 4.74752 8.0744
1 0.980246 1.75468 8.60339
1 4.40712 5.46984 0.656463
1 4.05848 0.761135 7.35962
1 6.76034 6.61648 3.96614
1 2.69843 0.49247 5.34499
1 6.49259 0.635005 9.42277
1 4.73325 7.46859 6.23602
1 2.93372 3.67063 8.98829
1 6.51805 4.27669 6.85798
1 5.5492 2.42016 9.44829
1 1.0365 6.44811 6.10625
1 6.32854 1.06414 3.83295
1 4.80863 1.32617 6.70135
1 3.14148 4.74411 6.95659
1 4.56299 4.73444 9.42349
1 6.55259 0.725593 2.18167
1 2.11892 3.90938 1.82896
1 4.34616 7.49777 1.59726
1 0.3975 3.24361 4.27906
1 2.31927 7.29711 9.10111
1 7.71009 2.1152 4.54173
1 4.76731 3.94981 7.13859
1 3.09334 5.91742 4.23399
1 7.037 6.48426 9.00949
1 3.51152 2.77716 0.634558
1 0.112274 0.0170726 0.308242
1 6.50869 5.62558 4.30553
1 1.49669 3.05772 1.91197
1 6.56611 5.5607 5.52707
1 2.03457 1.32767 5.04407
1 1.64295 0.160082 0.642032
1 2.80193 5.03579 9.05513
1 4.61439 2.74454 9.95319
1 5.59819 5.86433 5.75225
1 7.0866 7.06499 1.27568
1 7.27561 4.94296 2.76118
1 7.91653 2.96373 2.96832
1 4.38158 2.49861 2.58277
1 1.77528 3.70658 0.835561
1 5.30274 0.440562 5.66281
1 1.74535 1.7234 5.93689
1 4.53772 6.16057 7.09704
1 5.14695 1.44758 5.03266
1 6.86308 1.70248 7.24938
1 1.21869 2.3937 6.45868
1 2.79781 1.85311 6.01857
1 3.47685 2.49032 7.7778
1 2.93583 7.03813 3.93778
1 4.71502 2.33723 5.67272
1 3.304 4.26882 9.736
1 4.95533 6.90203 2.25656
1 7.97812 3.29876 0.0948617
1 1.29734 6.4671 -0.0105286
1 5.05979 2.74349 1.50783
1 0.155006 4.94159 7.22517
1 -0.720247 6.35271 1.8576
1 0.376794 7.27493 5.72391
1 8.45402 1.04111 2.19024
1 2.60954 4.74976 2.73234
1 1.66689 2.20125 4.69131
1 4.21654 4.74549 1.6392
1 5.70746 3.71454 6.8877
1 8.13826 0.846112 9.65462
1 2.84042 5.60024 5.14412
1 -0.458443 7.36222 1.66787
1 7.87435 2.96835 5.81321
1 3.54099 4.93994 0.832881
1 5.39242 6.02807 7.99316
1 2.51342 6.18193 9.30402
1 8.73347 3.52528 9.14928
1 1.90895 3.02099 3.08242
1 1.65266 2.06043 9.26109
1 5.81213 2.97673 4.34884
1 3.71709 5.61654 1.61879
1 4.27184 6.14874 2.36537
1 8.42911 1.07573 5.66677
1 3.61715 2.54242 5.47095
1 5.10587 0.758352 4.19332
1 3.46427 2.99344 4.45775
1 1.50338 1.96694 7.384
1 2.04257 5.69576 8.41765
666
Atoms. Timestep: 2000
1 5.60339 1.76393 1.83635
1 0.917394 2.58806 8.22009
1 4.97234 6.65908 6.46759
1 1.96094 7.13096 7.20518
1 6.24275 6.95883 0.571585
1 3.01897 2.90964 3.59052
1 2.43038 5.12662 2.1364
1 8.14783 5.10896 9.804
1 4.80086 7.09001 8.82041
1 3.51287 6.38715 7.68218
1 4.51714 1.22343 0.469701
1 6.22508 6.41595 7.96927
1 1.53683 7.92139 9.92772
1 8.72278 2.96628 5.76743
1 4.83607 6.33615 4.11227
1 2.04163 2.66578 4.01682
1 1.56794 3.12041 0.0964577
1 2.38795 2.46108 2.14095
1 0.978526 6.88018 3.95369
1 2.02155 4.17346 9.32239
1 5.06014 5.18268 7.49465
1 5.91624 5.11651 2.17055
1 6.3536 1.65416 9.80014
1 7.22335 3.02404 1.82515
1 1.34732 1.89575 3.5908
1 5.1535 2.91024 3.71541
1 4.5427 1.07481 1.45309
1 0.754788 4.599 2.1929
1 2.47609 6.77447 7.97813
1 5.94633 0.944846 4.52448
1 7.66863 4.16615 8.17386
1 -1.17715 5.33709 0.316513
1 -0.000427416 5.02695 0.189362
1 8.95814 1.48658 8.68457
1 3.39445 3.21813 9.75439
1 4.6524 4.27376 0.844837
1 6.74262 2.08922 1.9085
1 8.38654 0.795535 5.13082
1 0.233616 5.92439 7.41302
1 9.03689 0.841298 9.38855
1 1.00541 4.26409 4.62609
1 5.36607 1.20997 9.67272
1 8.208 3.98218 9.82571
1 5.85565 4.94145 0.10622
1 2.47683 2.12288 3.13281
1 2.44779 5.99085 2.81895
1 6.89224 6.16015 0.667061
1 4.13335 2.47085 7.14078
1 5.60781 3.71262 1.35252
1 4.08504 3.8706 4.87237
1 5.43027 1.11878 1.07272
1 7.30611 1.75403 3.77311
1 0.660805 1.67985 7.18891
1 1.72046 2.67818 5.76586
1 0.609048 5.26774 5.10651
1 0.849041 2.35507 2.65559
1 1.93573 5.29048 6.99833
1 0.15025 5.22527 8.33189
1 2.6031 4.74711 4.37055
1 -0.231837 2.71689 2.07501
1 -0.573696 6.57783 4.69285
1 0.316991 3.47966 8.27916
1 5.29939 4.14147 9.08465
1 6.29199 5.78486 6.55955
1 2.9023 2.23491 9.57532
1 3.43526 1.40731 9.66821
1 -0.075129 1.11348 0.414836
1 6.3588 3.72743 0.347593
1 6.32588 6.74634 6.02939
1 0.696634 3.66313 0.367611
1 4.64558 7.31419 5.00086
1 -0.798565 4.72734 1.12687
1 0.71446 2.56711 0.306768
1 -0.836811 6.54691 0.950305
1 3.24351 5.94368 6.73575
1 0.20074 0.316952 2.1958
1 0.753389 4.37366 8.93698
1 7.94894 1.42549 7.86449
1 1.4429 1.17084 9.47254
1 5.29412 6.78313 9.76489
1 3.82137 1.72278 2.96873
1 1.78337 7.3391 4.48499
1 6.03985 2.0128 6.93564
1 6.49654 1.25666 1.09186
1 2.17439 1.59178 4.14186
1 5.40574 3.0212 5.53324
1 5.84043 5.92439 0.513745
1 6.30435 5.28196 3.14964
1 3.99385 1.63102 4.91982
1 5.29261 5.83546 1.6251
1 1.48756 5.11533 2.79162
1 1.47738 1.27789 6.65234
1 0.836933 5.45593 9.0435
1 0.0254527 6.47256 0.243165
1 2.69029 3.1294 4.75176
1 3.84483 2.82535 1.47039
1 7.34306 6.25972 6.29007
1 4.11429 7.62862 7.76737
1 7.07828 7.51412 6.57843
1 7.08264 1.23631 0.260115
1 8.83022 0.987759 3.11288
1 0.593936 3.84094 7.30702
1 6.31824 5.74413 1.38295
1 -0.352189 5.39554 4.90222
1 3.7789 6.57765 4.25059
1 5.37035 7.01837 3.41711
1 8.01084 3.14098 6.70491
1 1.80308 1.67229 2.51451
1 3.84788 3.43913 7.76007
1 0.628221 6.95084 4.88798
1 6.22911 2.68465 3.36962
1 -0.0575099 7.09466 3.97024
1 7.62455 2.35914 7.31229
1 1.32612 3.88507 2.81374
1 5.12354 6.02089 9.12658
1 6.44773 7.21411 5.05054
1 3.38529 0.830814 1.65943
1 6.08661 1.47277 8.79722
1 1.90241 0.896961 3.37202
1 8.9863 1.96216 9.66177
1 -0.672955 7.70267 9.10844
1 -0.738976 5.24421 2.05223
1 2.34756 3.17193 9.24727
1 5.54288 6.21007 7.19911
1 7.41611 7.02849 9.64582
1 7.41196 4.48767 9.42112
1 0.636175 7.2958 7.9067
1 1.04257 1.21998 8.15373
1 -0.0025595 1.68533 2.39717
1 3.17353 2.04567 6.59779
1 4.34274 4.34512 7.49419
1 6.81985 4.33609 4.66966
1 7.80235 1.91966 2.07888
1 7.50696 4.92438 4.09509
1 8.8061 1.73195 4.68148
1 4.62403 1.01542 6.06306
1 3.63036 4.87953 4.90921
1 6.77987 5.09172 0.709233
1 2.20478 3.02239 7.82886
1 5.83755 7.27151 6.7413
1 8.19127 3.45298 8.76556
1 6.68679 2.33341 4.24035
1 -0.408083 5.67137 0.907221
1 7.51522 3.90165 3.47231
1 8.1478 4.76471 6.33007
1 7.09917 3.50487 9.14107
1 6.49861 0.783104 5.41367
1 1.25361 1.02639 4.21162
1 6.72216 1.68938 6.31064
1 0.390267 7.8329 8.74556
1 -0.264594 5.82062 9.18644
1 5.93217 6.67157 8.9099
1 4.628 2.84859 8.18092
1 0.674144 6.32807 9.68251
1 4.59242 4.23584 6.4317
1 1.16143 3.77171 9.62568
1 3.80448 5.13027 9.04676
1 5.43332 2.58142 2.67233
1 5.56908 4.7576 6.10892
1 0.827009 1.40176 1.8207
1 1.7601 5.88529 5.43024
1 6.89321 7.14154 8.72055
1 0.0894886 5.438 6.2967
1 4.1835 1.5794 8.2824
1 6.143 3.62693 3.40537
1 3.32012 5.23705 5.92982
1 7.19695 2.22304 2.77314
1 3.15474 6.96173 2.32148
1 2.20356 2.45511 6.86981
1 8.09266 1.57031 9.29685
1 0.219969 2.64146 7.01973
1 2.96637 7.35487 5.62264
1 7.19937 0.221327 2.19109
1 4.76807 1.45601 2.30157
1 5.20314 0.563664 1.94908
1 4.39483 7.08004 0.299382
1 6.49855 0.500488 2.93447
1 6.26605 3.35845 8.54064
1 0.921066 7.27915 0.899529
1 1.04509 6.92594 6.88239
1 1.16626 7.31784 9.14017
1 6.97499 0.625765 6.40974
1 2.92643 4.96098 9.81587
1 2.29741 0.467148 1.62309
1 2.95779 1.71432 8.68411
1 -0.298829 4.38861 3.74442
1 2.74299 2.77233 5.87588
1 5.74922 2.43292 8.39808
1 3.42952 1.52461 7.53931
1 9.159 0.502832 8.35875
1 5.20129 5.07169 0.774452
1 2.4096 0.639319 6.32406
1 1.6104 4.57756 3.7889
1 7.88407 6.99346 6.68318
1 7.0072 2.07923 0.910202
1 5.99116 2.15361 0.898544
1 5.2454 2.09895 0.330942
1 3.9735 5.31898 7.83393
1 6.10537 3.43885 9.51605
1 5.83917 1.55782 5.86784
1 3.80925 2.14599 9.04358
1 6.05707 4.68801 1.29466
1 6.35227 2.97148 1.29011
1 1.91456 6.19296 0.976436
1 3.06739 4.2963 2.11893
1 4.16829 3.70801 3.75822
1 7.91431 5.0995 7.60571
1 2.16612 4.65701 7.84508
1 8.31324 3.20236 7.75794
1 4.62008 0.640515 2.85732
1 5.7096 5.0089 3.91923
1 -0.328755 7.55173 8.2094
1 4.09693 6.85842 9.50987
1 3.75681 0.784798 5.47145
1 7.17986 6.13423 8.31217
1 8.17157 2.27303 4.10912
1 0.670467 4.35693 3.31876
1 7.0132 4.93844 1.71272
1 0.133094 7.44023 6.85593
1 3.42552 3.38028 5.41756
1 2.95773 2.20203 1.31304
1 4.4845 1.75684 9.89409
1 3.06116 2.96654 7.13551
1 1.83185 3.3652 6.60032
1 0.20278 6.17639 5.46714
1 4.25661 1.06331 9.16678
1 1.96135 1.36352 8.55795
1 4.37595 5.09963 5.56644
1 -0.180646 2.08024 0.596459
1 4.18981 1.41116 6.93574
1 4.68444 2.07847 1.19134
1 4.19767 2.70769 3.42053
1 8.75915 2.18777 7.87909
1 7.46346 1.19612 5.66725
1 7.08089 5.7188 7.24477
1 8.1115 0.369941 5.9661
1 1.11834 5.79595 6.94354
1 4.72476 4.87989 3.56258
1 3.23052 3.84881 4.34773
1 1.41205 7.46864 3.22977
1 4.77691 3.34683 2.89773
1 5.76552 3.67953 2.42984
1 0.563131 5.01651 4.03135
1 8.46966 1.78674 6.85839
1 0.423726 7.01636 2.1005
1 3.02693 2.81448 8.52878
1 -0.0797319 4.38516 4.88963
1 0.328681 6.32445 3.19145
1 1.62619 4.81921 8.67866
1 5.92397 4.83466 5.09661
1 3.57745 6.84598 8.54029
1 1.74401 4.6631 5.34035
1 0.939794 4.61451 0.566484
1 8.15961 6.02508 8.16499
1 1.84634 0.773718 7.61945
1 0.118699 5.03985 1.57785
1 4.69132 3.12267 0.895
1 6.59425 3.07463 5.13394
1 5.55697 4.63941 8.22649
1 6.13857 0.934058 6.8672
1 0.775797 1.49065 0.752127
1 3.78994 5.86524 5.13534
1 1.12587 6.1989 4.77139
1 8.21153 3.82743 5.50678
1 8.10099 5.7296 6.84497
1 0.960072 0.490259 3.505
1 7.95257 2.50489 1.16636
1 4.86814 7.39042 7.11088
1 5.1037 3.96174 3.73333
1 4.8468 5.17052 8.59355
1 4.22638 6.1123 8.63453
1 1.13741 5.71793 3.68521
1 0.309983 4.68133 9.91913
1 3.05226 1.07362 4.36603
1 4.33459 4.30162 8.59185
1 4.41026 3.83883 9.5705
1 7.79204 1.53949 0.870403
1 0.564565 2.69234 4.39117
1 8.51985 3.19631 4.80265
1 7.24038 1.20462 2.80921
1 3.33641 4.14575 3.18724
1 4.32992 3.61225 0.141314
1 5.58851 0.957679 2.78693
1 7.88881 0.589785 0.334407
1 0.376273 2.24498 1.39161
1 7.8508 4.11826 2.39884
1 4.1043 6.00727 6.15381
1 2.7295 0.969597 8.06214
1 1.65937 7.33781 8.23139
1 8.03565 5.7282 5.78164
1 8.53998 2.98397 10.0091
1 7.08493 0.64127 3.912
1 7.24031 6.46954 5.30047
1 6.51389 4.48303 3.67685
1 3.75152 1.78911 0.77066
1 4.16692 5.50723 4.34154
1 3.87568 6.86609 1.37641
1 6.64794 2.58152 7.8
1 2.51993 3.66682 0.305613
1 4.7768 5.18589 2.57788
1 5.59481 1.87306 3.94808
1 5.21538 0.233434 0.614765
1 1.25323 0.635053 1.36858
1 4.42024 3.31954 5.89443
1 3.81458 0.625141 0.753979
1 4.58809 6.73538 7.87988
1 0.450137 5.37874 3.0428
1 5.61111 7.29347 8.13475
1 0.560438 5.7153 0.798724
1 3.21156 7.32899 7.44017
1 2.28428 5.76271 8.17185
1 7.5168 3.90094 6.32508
1 1.20295 4.12159 5.97423
1 1.64098 2.10283 0.539071
1 2.50905 3.86961 7.24606
1 2.30587 6.17173 7.20949
1 1.47317 3.03618 4.89407
1 5.04915 4.38595 2.07461
1 0.206718 6.49694 1.30423
1 6.74052 2.43436 8.80186
1 0.71285 2.38201 5.37958
1 4.26081 2.6451 -0.0263487
1 2.76662 4.43606 5.55308
1 3.76414 1.8029 1.79242
1 4.6784 3.38607 1.88874
1 8.11349 2.26473 5.20419
1 5.18011 3.70823 8.05696
1 6.47154 6.3345 3.19818
1 7.98294 0.885296 6.76142
1 0.33815 4.58302 5.85684
1 1.49859 3.53024 3.88011
1 6.21891 5.42072 7.54291
1 2.17877 5.17571 1.09836
1 6.04148 5.45909 8.70071
1 0.0880119 6.98135 8.99454
1 3.28298 6.55138 3.25702
1 8.61465 1.33502 1.40057
1 2.82392 6.00703 1.50418
1 3.10783 6.87621 9.84658
1 -0.0947362 2.46364 3.11361
1 2.55804 4.29003 1.30103
1 -0.178836 4.02066 0.743544
1 6.12402 3.2649 7.03303
1 2.45213 0.733293 2.53369
1 2.81909 0.788051 0.666092
1 4.19722 0.480537 6.72784
1 4.94801 1.91848 7.65874
1 6.79874 2.63379 6.71058
1 7.08029 1.42529 9.25534
1 8.04391 1.78319 3.03152
1 4.34623 2.71519 5.19644
1 3.698 4.31912 5.98821
1 1.43501 7.30848 2.2293
1 4.32015 1.45914 3.96746
1 7.34729 0.511326 4.89287
1 8.93797 2.61153 8.87748
1 6.01544 6.73416 1.55717
1 8.48628 4.41436 9.04311
1 7.1509 4.60649 7.21305
1 4.96397 3.43375 4.61847
1 5.40701 4.19717 7.13739
1 8.08956 4.18245 7.19297
1 7.30779 0.669342 7.65211
1 4.37982 6.71545 3.20544
1 4.22111 7.22623 2.35789
1 5.88941 4.07998 4.34862
1 0.81399 0.614947 0.396464
1 -0.891199 6.54302 3.74327
1 6.91877 5.24822 9.13022
1 6.3211 4.66136 6.75055
1 0.387826 1.8034 3.80258
1 1.75631 0.898504 0.515681
1 2.64766 3.49912 2.7231
1 7.94244 2.65285 9.2506
1 5.3737 2.79861 7.42296
1 6.36553 4.36709 9.00131
1 2.99163 3.24878 1.66346
1 -0.482148 5.3775 3.69472
1 3.79912 3.41251 2.41782
1 3.85001 6.83562 5.39673
1 5.06567 5.85794 3.24073
1 5.8364 5.98263 3.98423
1 3.68591 7.77778 6.5135
1 3.38875 5.99976 2.4248
1 0.822418 3.24036 2.11563
1 3.85354 4.87941 0.527572
1 4.19096 0.285187 2.04756
1 3.61493 4.94787 2.52603
1 1.55977 6.17269 8.75075
1 3.74435 4.6802 3.99706
1 5.12518 1.10823 8.36318
1 7.3928 6.45566 2.22293
1 6.19768 7.45073 4.04589
1 -0.171958 4.70412 2.68576
1 4.36281 7.41954 3.94075
1 1.11642 5.33821 6.13153
1 2.26477 2.87213 0.966196
1 7.36192 5.93181 4.51844
1 1.41159 2.30346 1.79488
1 1.99124 4.40981 6.404
1 6.54249 2.67198 0.0646861
1 0.766579 3.55132 5.22152
1 0.770273 3.06248 3.30887
1 0.659282 1.19736 5.28274
1 7.6907 2.07207 6.29595
1 6.77308 1.40941 4.55052
1 6.58885 4.54919 2.62536
1 1.85505 7.23964 1.26778
1 0.107725 3.11787 1.0737
1 1.22465 0.418903 6.04681
1 5.05125 2.69432 6.50769
1 2.27683 5.33081 6.08705
1 -0.104346 3.74684 6.47962
1 8.26729 3.30879 3.6747
1 2.88527 7.13262 1.14757
1 -0.652388 7.09135 2.85312
1 1.27313 5.42488 8.01926
1 3.92014 3.99664 1.61736
1 7.18713 7.13707 3.32192
1 1.69802 5.77843 1.94464
1 7.80673 0.386986 3.02629
1 6.40825 4.05169 7.68854
1 4.85603 2.17638 4.42203
1 6.63165 4.47561 5.71621
1 3.08134 6.27171 5.83201
1 2.30869 7.14049 2.893
1 0.366611 7.73938 9.7864
1 7.23433 1.08557 1.67993
1 2.10793 5.42246 3.67485
1 3.66487 2.81972 6.27239
1 7.65301 5.99492 9.62759
1 3.36527 1.07452 6.39077
1 6.59858 0.65747 8.46995
1 7.27233 3.72251 5.29439
1 2.95629 1.20289 3.38736
1 5.27141 6.67235 0.7702
1 2.65328 5.79099 0.452488
1 2.47024 1.29594 9.44695
1 0.273601 6.06237 4.22522
1 3.65656 7.44596 3.20581
1 9.22812 1.01266 6.48124
1 7.11563 3.39663 7.17276
1 0.425653 7.34147 3.07077
1 -0.287361 6.76886 7.5287
1 5.10697 0.885237 7.449
1 5.49049 6.85119 4.59317
1 2.20935 0.52558 4.31944
1 5.66558 4.54997 2.98745
1 2.92685 6.85982 6.62645
1 5.20516 3.08546 8.97751
1 0.190957 0.45381 1.17285
1 8.06673 1.12995 3.85684
1 -0.774585 6.03356 2.95726
1 0.891577 1.37555 2.90543
1 2.73509 4.6498 0.335558
1 7.82958 3.97453 4.46921
1 2.23888 6.67423 1.94737
1 6.83153 3.5138 4.22098
1 2.67893 2.13732 7.85137
1 0.00513229 3.65433 2.83898
1 7.26857 4.06657 0.741746
1 8.04689 0.717093 8.72993
1 6.60877 7.03729 2.36222
1 7.52855 7.27909 4.40432
1 6.12509 1.78907 2.76394
1 8.70739 4.29108 8.02648
1 3.57751 6.34517 0.623052
1 7.1653 5.16701 6.32683
1 1.35289 0.628147 2.46395
1 3.43864 2.07307 4.13755
1 1.21126 5.12992 1.41742
1 1.39191 3.56604 8.53301
1 4.86106 1.78259 3.21258
1 7.86084 6.84996 8.75127
1 7.01809 5.56682 2.57669
1 0.560838 6.20229 8.33022
1 2.74418 1.81927 0.354792
1 7.23229 3.25007 8.18552