1000
Atoms. Timestep: 0
0 0.0 0.03300000000000001 0.08100000000000002
0 0.0030000000000000005 0.05100000000000001 3.174
0 0.07200000000000001 0.054000000000000006 6.201
0 0.05700000000000001 0.2760000000000001 9.195
0 0.12300000000000001 0.23400000000000004 12.123
0 0.15300000000000002 0.06900000000000002 15.267
0 0.03300000000000001 0.18300000000000002 18.276
0 0.11400000000000002 0.129 21.024
0 0.012000000000000002 0.03300000000000001 24.021
0 0.14400000000000002 0.08700000000000001 27.207
0 0.126 3.021 0.06900000000000002
0 0.261 3.144 3.216
0 0.024000000000000004 3.051 6.087
0 0.24300000000000005 3.075 9.045
0 0.0030000000000000005 3.2880000000000003 12.216
0 0.07500000000000001 3.249 15.114
0 0.18000000000000002 3.165 18.108
0 0.09000000000000001 3.237 21.189
0 0.126 3.114 24.126
0 0.26700000000000007 3.234 27.075
0 0.11700000000000002 6.225 0.009000000000000001
0 0.14700000000000002 6.186 3.015
0 0.036000000000000004 6.102 6.231
0 0.261 6.123 9.06
0 0.006000000000000001 6.012 12.216
0 0.19200000000000003 6.234 15.066
0 0.11400000000000002 6.0 18.276
0 0.14100000000000001 6.117 21.09
0 0.2760000000000001 6.042 24.255
0 0.29400000000000004 6.285 27.264
0 0.018000000000000002 9.084 0.255
0 0.063 9.267 3.21
0 0.07800000000000001 9.15 6.228
0 0.08700000000000001 9.21 9.093
0 0.06000000000000001 9.159 12.264
0 0.009000000000000001 9.003 15.069
0 0.18000000000000002 9.267 18.078
0 0.24600000000000002 9.207 21.096
0 0.15300000000000002 9.291 24.234
0 0.16800000000000004 9.132 27.108
0 0.07800000000000001 12.141 0.255
0 0.13800000000000004 12.015 3.285
0 0.05100000000000001 12.246 6.006
0 0.03300000000000001 12.024 9.21
0 0.030000000000000006 12.192 12.159
0 0.10800000000000001 12.15 15.171
0 0.17400000000000002 12.204 18.003
0 0.18600000000000003 12.135 21.165
0 0.23400000000000004 12.165 24.231
0 0.29700000000000004 12.258 27.195
0 0.09600000000000002 15.123 0.006000000000000001
0 0.13800000000000004 15.078 3.249
0 0.16500000000000004 15.069 6.165
0 0.07200000000000001 15.021 9.114
0 0.16500000000000004 15.213 12.075
0 0.09300000000000001 15.084 15.075
0 0.22500000000000003 15.111 18.012
0 0.19800000000000004 15.075 21.15
0 0.28800000000000003 15.228 24.132
0 0.07500000000000001 15.135 27.297
0 0.2700000000000001 18.228 0.28500000000000003
0 0.21300000000000002 18.051 3.129
0 0.19500000000000003 18.153 6.258
0 0.10800000000000001 18.087 9.063
0 0.14100000000000001 18.183 12.105
0 0.28200000000000003 18.252 15.102
0 0.04200000000000001 18.261 18.219
0 0.28800000000000003 18.297 21.297
0 0.045000000000000005 18.027 24.243
0 0.16800000000000004 18.168 27.015
0 0.06600000000000002 21.015 0.05100000000000001
0 0.012000000000000002 21.294 3.183
0 0.13200000000000003 21.177 6.069
0 0.16200000000000003 21.024 9.138
0 0.17400000000000002 21.195 12.213
0 0.126 21.192 15.042
0 0.29100000000000004 21.129 18.18
0 0.16800000000000004 21.207 21.006
0 0.23100000000000004 21.135 24.066
0 0.2700000000000001 21.021 27.24
0 0.18300000000000002 24.198 0.07500000000000001
0 0.16800000000000004 24.222 3.012
0 0.05700000000000001 24.231 6.123
0 0.15900000000000003 24.195 9.051
0 0.05100000000000001 24.12 12.066
0 0.28200000000000003 24.21 15.159
0 0.09600000000000002 24.075 18.06
0 0.18600000000000003 24.225 21.255
0 0.26400000000000007 24.225 24.027
0 0.09900000000000002 24.228 27.15
0 0.10500000000000001 27.018 0.2730000000000001
0 0.018000000000000002 27.243 3.054
0 0.24600000000000002 27.27 6.093
0 0.03300000000000001 27.063 9.177
0 0.09300000000000001 27.021 12.207
0 0.29700000000000004 27.213 15.018
0 0.07200000000000001 27.072 18.183
0 0.024000000000000004 27.135 21.033
0 0.18600000000000003 27.036 24.081
0 0.15300000000000002 27.123 27.186
0 3.171 0.20700000000000002 0.12300000000000001
0 3.159 0.255 3.069
0 3.096 0.20400000000000004 6.228
0 3.258 0.09000000000000001 9.075
0 3.018 0.009000000000000001 12.138
0 3.2880000000000003 0.09000000000000001 15.237
0 3.231 0.17400000000000002 18.081
0 3.066 0.015000000000000003 21.198
0 3.255 0.29400000000000004 24.003
0 3.036 0.2700000000000001 27.138
0 3.249 3.234 0.0
0 3.24 3.003 3.183
0 3.12 3.069 6.03
0 3.282 3.156 9.042
0 3.009 3.225 12.186
0 3.228 3.285 15.108
0 3.102 3.165 18.066
0 3.105 3.09 21.078
0 3.243 3.192 24.129
0 3.165 3.219 27.249
0 3.075 6.015 0.06900000000000002
0 3.216 6.057 3.114
0 3.036 6.267 6.057
0 3.015 6.054 9.285
0 3.114 6.201 12.21
0 3.054 6.18 15.168
0 3.231 6.036 18.204
0 3.198 6.021 21.093
0 3.168 6.099 24.207
0 3.078 6.117 27.132
0 3.168 9.174 0.09300000000000001
0 3.0 9.009 3.054
0 3.15 9.279 6.1530000000000005
0 3.282 9.231 9.117
0 3.1350000000000002 9.036 12.048
0 3.171 9.159 15.255
0 3.189 9.0 18.084
0 3.174 9.198 21.195
0 3.129 9.09 24.291
0 3.249 9.027 27.153
0 3.111 12.006 0.2760000000000001
0 3.174 12.105 3.21
0 3.09 12.228 6.174
0 3.117 12.114 9.279
0 3.294 12.288 12.276
0 3.282 12.195 15.045
0 3.114 12.267 18.228
0 3.255 12.222 21.108
0 3.003 12.015 24.183
0 3.024 12.285 27.09
0 3.267 15.192 0.21900000000000003
0 3.093 15.111 3.246
0 3.114 15.279 6.138
0 3.285 15.186 9.027
0 3.117 15.21 12.147
0 3.168 15.114 15.219
0 3.132 15.027 18.18
0 3.21 15.189 21.249
0 3.12 15.024 24.087
0 3.15 15.216 27.27
0 3.189 18.048 0.21000000000000002
0 3.006 18.207 3.054
0 3.1470000000000002 18.06 6.213
0 3.087 18.207 9.282
0 3.261 18.006 12.165
0 3.234 18.291 15.054
0 3.132 18.054 18.198
0 3.027 18.132 21.267
0 3.273 18.279 24.171
0 3.075 18.099 27.123
0 3.162 21.111 0.024000000000000004
0 3.039 21.201 3.03
0 3.24 21.168 6.225
0 3.03 21.204 9.285
0 3.273 21.186 12.03
0 3.102 21.186 15.087
0 3.06 21.162 18.138
0 3.123 21.111 21.252
0 3.057 21.198 24.261
0 3.156 21.252 27.234
0 3.216 24.015 0.05100000000000001
0 3.204 24.297 3.075
0 3.027 24.075 6.234
0 3.018 24.075 9.174
0 3.1470000000000002 24.087 12.069
0 3.144 24.009 15.024
0 3.138 24.183 18.114
0 3.057 24.291 21.09
0 3.153 24.219 24.297
0 3.177 24.132 27.234
0 3.105 27.123 0.006000000000000001
0 3.102 27.225 3.129
0 3.192 27.012 6.045
0 3.126 27.285 9.006
0 3.273 27.018 12.102
0 3.03 27.159 15.231
0 3.129 27.141 18.225
0 3.012 27.015 21.027
0 3.168 27.186 24.213
0 3.2760000000000002 27.207 27.177
0 6.237 0.129 0.07200000000000001
0 6.015 0.2700000000000001 3.261
0 6.291 0.09000000000000001 6.138
0 6.189 0.10200000000000002 9.201
0 6.066 0.17400000000000002 12.255
0 6.075 0.21900000000000003 15.054
0 6.003 0.21300000000000002 18.273
0 6.231 0.171 21.15
0 6.168 0.07200000000000001 24.048
0 6.12 0.18000000000000002 27.141
0 6.096 3.204 0.18600000000000003
0 6.24 3.114 3.132
0 6.021 3.213 6.108
0 6.033 3.129 9.297
0 6.24 3.216 12.231
0 6.291 3.015 15.246
0 6.228 3.258 18.09
0 6.195 3.225 21.156
0 6.042 3.255 24.033
0 6.081 3.093 27.153
0 6.075 6.171 0.054000000000000006
0 6.1530000000000005 6.087 3.027
0 6.063 6.168 6.249
0 6.168 6.018 9.279
0 6.117 6.276 12.249
0 6.039 6.081 15.021
0 6.132 6.162 18.147
0 6.102 6.228 21.138
0 6.063 6.225 24.294
0 6.093 6.228 27.105
0 6.198 9.216 0.21900000000000003
0 6.273 9.123 3.225
0 6.12 9.282 6.291
0 6.0 9.027 9.276
0 6.177 9.183 12.294
0 6.222 9.288 15.075
0 6.036 9.192 18.138
0 6.285 9.141 21.105
0 6.057 9.066 24.162
0 6.2940000000000005 9.102 27.069
0 6.285 12.099 0.29400000000000004
0 6.204 12.216 3.213
0 6.111 12.033 6.222
0 6.174 12.291 9.03
0 6.03 12.252 12.075
0 6.192 12.183 15.276
0 6.189 12.078 18.258
0 6.249 12.021 21.246
0 6.1530000000000005 12.042 24.195
0 6.225 12.144 27.153
0 6.192 15.153 0.24000000000000005
0 6.234 15.021 3.012
0 6.048 15.141 6.234
0 6.114 15.204 9.228
0 6.054 15.27 12.171
0 6.222 15.288 15.099
0 6.222 15.27 18.09
0 6.249 15.147 21.054
0 6.009 15.114 24.039
0 6.276 15.156 27.183
0 6.201 18.18 0.24600000000000002
0 6.057 18.171 3.243
0 6.099 18.156 6.123
0 6.285 18.0 9.102
0 6.213 18.135 12.228
0 6.267 18.024 15.117
0 6.114 18.003 18.207
0 6.042 18.033 21.09
0 6.054 18.153 24.252
0 6.297 18.027 27.147
0 6.141 21.297 0.09600000000000002
0 6.24 21.189 3.27
0 6.102 21.078 6.234
0 6.159 21.204 9.18
0 6.156 21.099 12.198
0 6.219 21.264 15.054
0 6.216 21.003 18.081
0 6.129 21.117 21.111
0 6.024 21.087 24.039
0 6.258 21.165 27.12
0 6.138 24.198 0.18000000000000002
0 6.255 24.237 3.129
0 6.141 24.249 6.162
0 6.072 24.159 9.18
0 6.051 24.285 12.111
0 6.138 24.135 15.042
0 6.192 24.033 18.171
0 6.102 24.222 21.09
0 6.207 24.252 24.027
0 6.132 24.222 27.243
0 6.258 27.075 0.036000000000000004
0 6.2940000000000005 27.075 3.024
0 6.147 27.039 6.099
0 6.276 27.114 9.252
0 6.051 27.138 12.291
0 6.204 27.201 15.129
0 6.225 27.192 18.237
0 6.255 27.09 21.048
0 6.096 27.282 24.27
0 6.168 27.18 27.024
0 9.264 0.0030000000000000005 0.10500000000000001
0 9.12 0.12000000000000002 3.129
0 9.036 0.16800000000000004 6.279
0 9.246 0.22200000000000003 9.075
0 9.057 0.21300000000000002 12.261
0 9.228 0.23100000000000004 15.186
0 9.279 0.030000000000000006 18.198
0 9.144 0.024000000000000004 21.075
0 9.021 0.10800000000000001 24.189
0 9.21 0.04800000000000001 27.06
0 9.168 3.186 0.14100000000000001
0 9.267 3.2640000000000002 3.153
0 9.105 3.057 6.285
0 9.099 3.12 9.165
0 9.054 3.009 12.201
0 9.234 3.069 15.135
0 9.228 3.1470000000000002 18.207
0 9.042 3.204 21.156
0 9.078 3.249 24.195
0 9.177 3.054 27.156
0 9.159 6.162 0.054000000000000006
0 9.294 6.084 3.045
0 9.093 6.189 6.033
0 9.276 6.288 9.081
0 9.252 6.099 12.09
0 9.111 6.108 15.216
0 9.102 6.063 18.048
0 9.003 6.288 21.135
0 9.252 6.114 24.051
0 9.069 6.054 27.225
0 9.153 9.195 0.21000000000000002
0 9.222 9.141 3.141
0 9.261 9.147 6.171
0 9.102 9.228 9.087
0 9.012 9.075 12.117
0 9.051 9.003 15.006
0 9.108 9.132 18.222
0 9.111 9.138 21.27
0 9.063 9.054 24.189
0 9.189 9.039 27.297
0 9.102 12.15 0.21900000000000003
0 9.282 12.012 3.12
0 9.204 12.042 6.102
0 9.237 12.114 9.123
0 9.189 12.018 12.195
0 9.063 12.183 15.111
0 9.231 12.024 18.138
0 9.183 12.117 21.198
0 9.174 12.099 24.153
0 9.084 12.216 27.255
0 9.048 15.231 0.21300000000000002
0 9.192 15.162 3.192
0 9.213 15.18 6.003
0 9.162 15.174 9.207
0 9.177 15.174 12.297
0 9.234 15.156 15.255
0 9.237 15.006 18.261
0 9.165 15.075 21.207
0 9.294 15.054 24.012
0 9.27 15.105 27.192
0 9.204 18.222 0.26700000000000007
0 9.141 18.204 3.012
0 9.126 18.249 6.054
0 9.201 18.21 9.141
0 9.174 18.159 12.093
0 9.069 18.078 15.198
0 9.291 18.186 18.009
0 9.117 18.006 21.141
0 9.141 18.204 24.267
0 9.18 18.009 27.138
0 9.024 21.138 0.018000000000000002
0 9.012 21.213 3.258
0 9.0 21.129 6.093
0 9.108 21.267 9.126
0 9.063 21.132 12.042
0 9.006 21.243 15.105
0 9.243 21.039 18.03
0 9.081 21.015 21.12
0 9.165 21.279 24.021
0 9.228 21.066 27.141
0 9.072 24.075 0.258
0 9.225 24.093 3.204
0 9.267 24.09 6.03
0 9.054 24.06 9.231
0 9.015 24.111 12.198
0 9.0 24.108 15.075
0 9.138 24.099 18.18
0 9.144 24.189 21.006
0 9.216 24.126 24.132
0 9.057 24.177 27.153
0 9.006 27.087 0.03900000000000001
0 9.228 27.048 3.036
0 9.297 27.171 6.078
0 9.165 27.009 9.108
0 9.051 27.006 12.291
0 9.012 27.144 15.108
0 9.021 27.003 18.096
0 9.201 27.216 21.285
0 9.243 27.09 24.222
0 9.24 27.228 27.282
0 12.189 0.09300000000000001 0.28500000000000003
0 12.09 0.258 3.093
0 12.09 0.07500000000000001 6.171
0 12.102 0.19500000000000003 9.216
0 12.27 0.19200000000000003 12.096
0 12.087 0.0030000000000000005 15.105
0 12.294 0.261 18.102
0 12.036 0.08100000000000002 21.063
0 12.258 0.18600000000000003 24.012
0 12.066 0.19500000000000003 27.21
0 12.0 3.258 0.23400000000000004
0 12.261 3.297 3.282
0 12.111 3.219 6.0
0 12.162 3.294 9.294
0 12.204 3.267 12.093
0 12.246 3.1470000000000002 15.189
0 12.027 3.246 18.21
0 12.216 3.06 21.015
0 12.186 3.189 24.231
0 12.021 3.087 27.138
0 12.027 6.177 0.258
0 12.153 6.267 3.243
0 12.231 6.285 6.0
0 12.144 6.279 9.162
0 12.18 6.207 12.141
0 12.114 6.24 15.261
0 12.099 6.282 18.039
0 12.156 6.099 21.093
0 12.162 6.198 24.051
0 12.072 6.045 27.171
0 12.09 9.024 0.19200000000000003
0 12.174 9.243 3.048
0 12.018 9.21 6.204
0 12.267 9.219 9.003
0 12.21 9.255 12.186
0 12.06 9.072 15.252
0 12.198 9.21 18.018
0 12.231 9.099 21.282
0 12.123 9.102 24.066
0 12.153 9.168 27.243
0 12.225 12.231 0.16500000000000004
0 12.036 12.258 3.159
0 12.051 12.297 6.009
0 12.216 12.048 9.186
0 12.12 12.171 12.003
0 12.03 12.075 15.054
0 12.126 12.192 18.144
0 12.285 12.201 21.243
0 12.045 12.162 24.126
0 12.246 12.147 27.093
0 12.042 15.09 0.015000000000000003
0 12.057 15.027 3.123
0 12.279 15.09 6.288
0 12.15 15.051 9.252
0 12.294 15.066 12.06
0 12.126 15.234 15.033
0 12.081 15.108 18.126
0 12.276 15.228 21.0
0 12.276 15.168 24.135
0 12.117 15.288 27.24
0 12.147 18.033 0.15900000000000003
0 12.162 18.267 3.189
0 12.255 18.258 6.075
0 12.012 18.048 9.234
0 12.216 18.087 12.111
0 12.159 18.255 15.108
0 12.249 18.228 18.0
0 12.141 18.0 21.057
0 12.015 18.27 24.288
0 12.003 18.078 27.048
0 12.291 21.135 0.07800000000000001
0 12.192 21.255 3.252
0 12.225 21.03 6.267
0 12.027 21.108 9.135
0 12.168 21.294 12.207
0 12.18 21.138 15.027
0 12.141 21.24 18.111
0 12.168 21.105 21.147
0 12.228 21.231 24.012
0 12.177 21.018 27.105
0 12.297 24.168 0.08100000000000002
0 12.24 24.138 3.144
0 12.081 24.243 6.069
0 12.228 24.189 9.234
0 12.165 24.216 12.072
0 12.045 24.102 15.135
0 12.147 24.195 18.009
0 12.099 24.141 21.09
0 12.252 24.015 24.0
0 12.12 24.156 27.246
0 12.024 27.075 0.2790000000000001
0 12.096 27.0 3.168
0 12.063 27.243 6.195
0 12.075 27.264 9.048
0 12.045 27.273 12.288
0 12.228 27.18 15.156
0 12.285 27.246 18.03
0 12.21 27.027 21.039
0 12.18 27.015 24.042
0 12.264 27.228 27.093
0 15.069 0.23400000000000004 0.08700000000000001
0 15.0 0.18000000000000002 3.141
0 15.123 0.18600000000000003 6.189
0 15.285 0.171 9.087
0 15.129 0.18000000000000002 12.234
0 15.198 0.18300000000000002 15.06
0 15.132 0.16800000000000004 18.243
0 15.027 0.09900000000000002 21.192
0 15.198 0.17400000000000002 24.279
0 15.084 0.21000000000000002 27.051
0 15.258 3.198 0.29400000000000004
0 15.0 3.132 3.2640000000000002
0 15.111 3.207 6.234
0 15.123 3.261 9.168
0 15.075 3.237 12.273
0 15.186 3.228 15.027
0 15.246 3.084 18.03
0 15.006 3.12 21.039
0 15.285 3.096 24.111
0 15.285 3.054 27.021
0 15.039 6.273 0.0030000000000000005
0 15.168 6.162 3.294
0 15.102 6.2940000000000005 6.036
0 15.027 6.117 9.063
0 15.195 6.219 12.09
0 15.276 6.078 15.099
0 15.171 6.117 18.138
0 15.084 6.219 21.135
0 15.12 6.102 24.279
0 15.207 6.207 27.021
0 15.156 9.117 0.22200000000000003
0 15.111 9.27 3.042
0 15.114 9.108 6.099
0 15.138 9.297 9.159
0 15.186 9.048 12.135
0 15.234 9.045 15.054
0 15.051 9.054 18.105
0 15.06 9.267 21.237
0 15.162 9.045 24.117
0 15.222 9.282 27.282
0 15.225 12.147 0.19500000000000003
0 15.039 12.297 3.033
0 15.06 12.114 6.183
0 15.075 12.066 9.072
0 15.051 12.162 12.123
0 15.033 12.171 15.27
0 15.15 12.171 18.159
0 15.093 12.171 21.27
0 15.033 12.063 24.198
0 15.144 12.288 27.087
0 15.021 15.066 0.24000000000000005
0 15.168 15.246 3.048
0 15.024 15.087 6.051
0 15.102 15.102 9.132
0 15.069 15.264 12.012
0 15.021 15.0 15.165
0 15.195 15.282 18.249
0 15.048 15.096 21.063
0 15.255 15.153 24.132
0 15.297 15.228 27.207
0 15.138 18.006 0.252
0 15.246 18.297 3.255
0 15.105 18.021 6.081
0 15.024 18.252 9.144
0 15.072 18.258 12.027
0 15.264 18.081 15.18
0 15.111 18.117 18.159
0 15.108 18.117 21.096
0 15.015 18.159 24.048
0 15.153 18.195 27.288
0 15.216 21.141 0.252
0 15.174 21.132 3.246
0 15.03 21.12 6.033
0 15.246 21.09 9.267
0 15.195 21.243 12.03
0 15.036 21.012 15.063
0 15.183 21.093 18.051
0 15.183 21.06 21.063
0 15.051 21.057 24.207
0 15.039 21.24 27.096
0 15.003 24.276 0.21000000000000002
0 15.09 24.234 3.18
0 15.165 24.258 6.189
0 15.054 24.252 9.123
0 15.057 24.285 12.249
0 15.186 24.252 15.126
0 15.051 24.015 18.024
0 15.156 24.051 21.162
0 15.153 24.081 24.036
0 15.201 24.207 27.102
0 15.147 27.045 0.28800000000000003
0 15.171 27.063 3.279
0 15.087 27.192 6.297
0 15.108 27.216 9.285
0 15.165 27.246 12.12
0 15.117 27.033 15.213
0 15.21 27.036 18.072
0 15.213 27.174 21.201
0 15.231 27.18 24.225
0 15.186 27.147 27.129
0 18.225 0.23700000000000004 0.06600000000000002
0 18.243 0.21300000000000002 3.039
0 18.156 0.13200000000000003 6.123
0 18.135 0.171 9.117
0 18.159 0.13200000000000003 12.243
0 18.015 0.08100000000000002 15.03
0 18.03 0.0 18.081
0 18.195 0.012000000000000002 21.114
0 18.102 0.0030000000000000005 24.219
0 18.243 0.29400000000000004 27.201
0 18.051 3.048 0.21300000000000002
0 18.216 3.18 3.108
0 18.039 3.243 6.213
0 18.297 3.015 9.003
0 18.177 3.291 12.264
0 18.225 3.048 15.123
0 18.222 3.084 18.222
0 18.06 3.126 21.282
0 18.066 3.192 24.105
0 18.18 3.198 27.192
0 18.132 6.2700000000000005 0.20400000000000004
0 18.057 6.15 3.099
0 18.201 6.048 6.168
0 18.0 6.078 9.264
0 18.207 6.282 12.045
0 18.132 6.027 15.171
0 18.222 6.027 18.186
0 18.21 6.033 21.009
0 18.219 6.111 24.108
0 18.051 6.225 27.183
0 18.258 9.159 0.063
0 18.192 9.189 3.222
0 18.267 9.051 6.066
0 18.063 9.156 9.09
0 18.276 9.093 12.057
0 18.288 9.276 15.231
0 18.09 9.243 18.174
0 18.141 9.177 21.147
0 18.204 9.246 24.204
0 18.006 9.099 27.075
0 18.276 12.09 0.036000000000000004
0 18.006 12.261 3.009
0 18.219 12.276 6.156
0 18.183 12.0 9.141
0 18.246 12.036 12.18
0 18.021 12.174 15.054
0 18.258 12.291 18.021
0 18.231 12.039 21.138
0 18.297 12.129 24.135
0 18.21 12.207 27.054
0 18.027 15.132 0.063
0 18.108 15.255 3.15
0 18.186 15.237 6.21
0 18.087 15.132 9.156
0 18.267 15.249 12.186
0 18.06 15.138 15.216
0 18.267 15.186 18.198
0 18.177 15.285 21.252
0 18.15 15.012 24.261
0 18.21 15.276 27.024
0 18.123 18.093 0.19500000000000003
0 18.021 18.282 3.024
0 18.234 18.114 6.069
0 18.033 18.045 9.003
0 18.114 18.261 12.264
0 18.015 18.132 15.153
0 18.237 18.093 18.195
0 18.258 18.171 21.297
0 18.111 18.009 24.108
0 18.12 18.123 27.057
0 18.249 21.189 0.26400000000000007
0 18.087 21.024 3.243
0 18.165 21.279 6.297
0 18.282 21.054 9.042
0 18.0 21.009 12.27
0 18.051 21.204 15.264
0 18.009 21.072 18.045
0 18.261 21.018 21.204
0 18.216 21.132 24.147
0 18.297 21.291 27.015
0 18.045 24.219 0.07800000000000001
0 18.045 24.06 3.273
0 18.261 24.081 6.282
0 18.108 24.036 9.078
0 18.036 24.24 12.258
0 18.057 24.249 15.132
0 18.021 24.273 18.039
0 18.0 24.183 21.264
0 18.225 24.03 24.186
0 18.036 24.207 27.072
0 18.201 27.012 0.21900000000000003
0 18.177 27.243 3.084
0 18.168 27.015 6.2700000000000005
0 18.138 27.054 9.261
0 18.213 27.051 12.234
0 18.27 27.282 15.255
0 18.21 27.057 18.018
0 18.264 27.207 21.138
0 18.003 27.135 24.093
0 18.219 27.234 27.282
0 21.018 0.17400000000000002 0.28500000000000003
0 21.276 0.0 3.156
0 21.105 0.255 6.084
0 21.285 0.28500000000000003 9.264
0 21.192 0.024000000000000004 12.177
0 21.132 0.18300000000000002 15.228
0 21.039 0.09000000000000001 18.246
0 21.072 0.14700000000000002 21.081
0 21.114 0.18900000000000003 24.009
0 21.276 0.28200000000000003 27.117
0 21.111 3.045 0.29400000000000004
0 21.264 3.207 3.222
0 21.195 3.246 6.096
0 21.27 3.267 9.15
0 21.237 3.174 12.234
0 21.102 3.06 15.0
0 21.066 3.09 18.138
0 21.171 3.195 21.165
0 21.057 3.129 24.261
0 21.273 3.162 27.282
0 21.168 6.219 0.18600000000000003
0 21.243 6.054 3.111
0 21.054 6.198 6.282
0 21.045 6.276 9.231
0 21.258 6.009 12.045
0 21.147 6.204 15.168
0 21.051 6.207 18.012
0 21.027 6.159 21.009
0 21.207 6.201 24.126
0 21.285 6.273 27.252
0 21.105 9.015 0.12000000000000002
0 21.168 9.135 3.048
0 21.165 9.069 6.126
0 21.264 9.252 9.222
0 21.078 9.09 12.207
0 21.171 9.03 15.003
0 21.123 9.201 18.027
0 21.24 9.237 21.114
0 21.219 9.033 24.216
0 21.213 9.15 27.246
0 21.021 12.057 0.11700000000000002
0 21.117 12.201 3.075
0 21.054 12.057 6.063
0 21.249 12.093 9.195
0 21.021 12.171 12.258
0 21.195 12.048 15.108
0 21.126 12.072 18.009
0 21.219 12.018 21.081
0 21.252 12.18 24.261
0 21.195 12.054 27.177
0 21.051 15.114 0.14400000000000002
0 21.123 15.171 3.129
0 21.039 15.045 6.108
0 21.123 15.177 9.03
0 21.099 15.096 12.27
0 21.117 15.012 15.243
0 21.276 15.24 18.171
0 21.297 15.06 21.204
0 21.264 15.165 24.198
0 21.102 15.192 27.261
0 21.009 18.288 0.036000000000000004
0 21.087 18.03 3.045
0 21.126 18.291 6.159
0 21.096 18.102 9.144
0 21.288 18.144 12.024
0 21.018 18.03 15.099
0 21.066 18.237 18.108
0 21.288 18.156 21.273
0 21.066 18.039 24.276
0 21.138 18.252 27.126
0 21.057 21.084 0.24600000000000002
0 21.183 21.174 3.207
0 21.174 21.153 6.018
0 21.054 21.135 9.222
0 21.267 21.009 12.027
0 21.054 21.018 15.294
0 21.243 21.18 18.258
0 21.042 21.096 21.006
0 21.132 21.126 24.171
0 21.261 21.126 27.273
0 21.084 24.048 0.15300000000000002
0 21.171 24.147 3.108
0 21.234 24.111 6.186
0 21.162 24.012 9.159
0 21.282 24.249 12.15
0 21.042 24.111 15.141
0 21.294 24.012 18.204
0 21.096 24.003 21.156
0 21.186 24.255 24.012
0 21.21 24.087 27.219
0 21.063 27.201 0.13200000000000003
0 21.225 27.138 3.261
0 21.126 27.237 6.087
0 21.159 27.276 9.123
0 21.06 27.114 12.207
0 21.126 27.282 15.111
0 21.147 27.072 18.222
0 21.186 27.222 21.09
0 21.099 27.171 24.087
0 21.237 27.219 27.042
1 24.249 0.036000000000000004 0.09300000000000001
1 24.075 0.06900000000000002 3.024
1 24.294 0.16500000000000004 6.159
1 24.276 0.006000000000000001 9.045
1 24.177 0.18300000000000002 12.234
1 24.21 0.29700000000000004 15.126
1 24.15 0.018000000000000002 18.048
1 24.063 0.126 21.078
1 24.045 0.21300000000000002 24.264
1 24.192 0.012000000000000002 27.198
1 24.225 3.012 0.012000000000000002
1 24.051 3.048 3.243
1 24.171 3.0 6.099
1 24.114 3.0 9.264
1 24.153 3.045 12.048
1 24.255 3.222 15.057
1 24.273 3.153 18.147
1 24.15 3.189 21.282
1 24.234 3.114 24.243
1 24.198 3.291 27.207
1 24.063 6.006 0.030000000000000006
1 24.201 6.282 3.195
1 24.231 6.054 6.279
1 24.255 6.06 9.258
1 24.246 6.165 12.072
1 24.129 6.258 15.03
1 24.252 6.246 18.156
1 24.249 6.063 21.153
1 24.168 6.129 24.081
1 24.021 6.102 27.297
1 24.153 9.231 0.09900000000000002
1 24.033 9.03 3.186
1 24.243 9.294 6.264
1 24.15 9.102 9.069
1 24.045 9.153 12.234
1 24.228 9.099 15.267
1 24.096 9.246 18.009
1 24.285 9.012 21.033
1 24.066 9.063 24.267
1 24.186 9.243 27.003
1 24.153 12.165 0.009000000000000001
1 24.006 12.036 3.1470000000000002
1 24.063 12.183 6.1530000000000005
1 24.081 12.225 9.027
1 24.036 12.021 12.228
1 24.015 12.138 15.048
1 24.042 12.078 18.027
1 24.186 12.273 21.069
1 24.186 12.219 24.18
1 24.15 12.195 27.102
1 24.069 15.081 0.26400000000000007
1 24.252 15.171 3.048
1 24.174 15.111 6.057
1 24.231 15.078 9.048
1 24.027 15.099 12.294
1 24.138 15.195 15.228
1 24.138 15.003 18.129
1 24.261 15.228 21.15
1 24.141 15.147 24.198
1 24.165 15.201 27.018
1 24.036 18.084 0.05100000000000001
1 24.288 18.273 3.198
1 24.105 18.201 6.198
1 24.237 18.009 9.162
1 24.234 18.258 12.0
1 24.267 18.093 15.27
1 24.027 18.009 18.282
1 24.147 18.276 21.093
1 24.147 18.294 24.186
1 24.009 18.129 27.219
1 24.225 21.192 0.24600000000000002
1 24.285 21.021 3.123
1 24.234 21.111 6.231
1 24.147 21.153 9.282
1 24.069 21.219 12.12
1 24.096 21.195 15.279
1 24.219 21.219 18.111
1 24.183 21.168 21.183
1 24.291 21.087 24.246
1 24.144 21.138 27.258
1 24.153 24.165 0.29400000000000004
1 24.051 24.294 3.255
1 24.228 24.123 6.036
1 24.207 24.132 9.006
1 24.219 24.132 12.114
1 24.111 24.024 15.228
1 24.042 24.003 18.15
1 24.057 24.096 21.159
1 24.042 24.279 24.027
1 24.189 24.042 27.069
1 24.168 27.276 0.15000000000000002
1 24.237 27.012 3.069
1 24.171 27.09 6.159
1 24.252 27.21 9.165
1 24.003 27.069 12.093
1 24.069 27.297 15.273
1 24.219 27.108 18.249
1 24.042 27.177 21.12
1 24.234 27.039 24.069
1 24.027 27.099 27.096
1 27.051 0.17400000000000002 0.054000000000000006
1 27.183 0.24600000000000002 3.081
1 27.093 0.13500000000000004 6.084
1 27.207 0.23700000000000004 9.225
1 27.126 0.11400000000000002 12.294
1 27.099 0.13800000000000004 15.036
1 27.156 0.14100000000000001 18.159
1 27.234 0.20400000000000004 21.072
1 27.267 0.14100000000000001 24.189
1 27.09 0.16500000000000004 27.231
1 27.216 3.195 0.19800000000000004
1 27.081 3.027 3.27
1 27.123 3.219 6.096
1 27.207 3.09 9.072
1 27.135 3.069 12.189
1 27.249 3.015 15.279
1 27.201 3.111 18.168
1 27.204 3.192 21.036
1 27.282 3.246 24.279
1 27.285 3.099 27.177
1 27.27 6.186 0.15600000000000003
1 27.165 6.132 3.183
1 27.156 6.285 6.078
1 27.045 6.057 9.057
1 27.03 6.156 12.099
1 27.087 6.087 15.186
1 27.189 6.099 18.06
1 27.042 6.2700000000000005 21.144
1 27.0 6.21 24.243
1 27.123 6.273 27.138
1 27.069 9.189 0.24300000000000005
1 27.246 9.078 3.228
1 27.21 9.168 6.195
1 27.198 9.045 9.165
1 27.027 9.189 12.183
1 27.21 9.213 15.114
1 27.297 9.174 18.207
1 27.009 9.054 21.264
1 27.033 9.102 24.108
1 27.024 9.135 27.276
1 27.192 12.075 0.22200000000000003
1 27.18 12.285 3.006
1 27.126 12.288 6.291
1 27.153 12.048 9.255
1 27.111 12.141 12.189
1 27.045 12.24 15.273
1 27.099 12.189 18.021
1 27.057 12.129 21.009
1 27.147 12.267 24.264
1 27.147 12.207 27.141
1 27.051 15.267 0.05700000000000001
1 27.114 15.075 3.075
1 27.249 15.078 6.096
1 27.132 15.066 9.234
1 27.231 15.297 12.147
1 27.231 15.18 15.075
1 27.267 15.297 18.261
1 27.177 15.054 21.012
1 27.171 15.165 24.021
1 27.057 15.264 27.069
1 27.033 18.174 0.126
1 27.243 18.225 3.162
1 27.237 18.03 6.156
1 27.156 18.255 9.123
1 27.171 18.24 12.0
1 27.099 18.171 15.081
1 27.15 18.006 18.108
1 27.288 18.141 21.267
1 27.174 18.126 24.159
1 27.153 18.147 27.042
1 27.27 21.168 0.20700000000000002
1 27.252 21.144 3.2880000000000003
1 27.135 21.132 6.192
1 27.237 21.222 9.147
1 27.003 21.111 12.183
1 27.012 21.252 15.051
1 27.219 21.216 18.12
1 27.135 21.021 21.276
1 27.165 21.093 24.201
1 27.201 21.294 27.261
1 27.075 24.045 0.027000000000000003
1 27.234 24.267 3.222
1 27.198 24.147 6.057
1 27.024 24.231 9.006
1 27.144 24.015 12.234
1 27.135 24.291 15.264
1 27.105 24.279 18.018
1 27.159 24.18 21.021
1 27.291 24.069 24.108
1 27.099 24.165 27.252
1 27.249 27.267 0.19500000000000003
1 27.144 27.018 3.216
1 27.171 27.183 6.171
1 27.114 27.126 9.21
1 27.231 27.258 12.102
1 27.105 27.075 15.102
1 27.198 27.189 18.255
1 27.048 27.102 21.195
1 27.183 27.09 24.072
1 27.162 27.054 27.225
1000
Atoms. Timestep: 1
1 0.09600000000000002 0.22800000000000004 0.10500000000000001
1 0.28800000000000003 0.261 3.201
1 0.28800000000000003 0.23100000000000004 6.162
1 0.29100000000000004 0.15600000000000003 9.144
1 0.19200000000000003 0.10800000000000001 12.084
1 0.2700000000000001 0.08400000000000002 15.012
1 0.09600000000000002 0.18000000000000002 18.24
1 0.29400000000000004 0.171 21.003
1 0.22200000000000003 0.06900000000000002 24.081
1 0.07800000000000001 0.012000000000000002 27.222
1 0.2700000000000001 3.096 0.24000000000000005
1 0.22200000000000003 3.294 3.009
1 0.129 3.099 6.201
1 0.29100000000000004 3.171 9.165
1 0.17700000000000002 3.279 12.156
1 0.18900000000000003 3.036 15.096
1 0.21900000000000003 3.015 18.294
1 0.22200000000000003 3.237 21.078
1 0.018000000000000002 3.048 24.279
1 0.009000000000000001 3.207 27.228
1 0.06600000000000002 6.108 0.26400000000000007
1 0.2760000000000001 6.021 3.126
1 0.009000000000000001 6.06 6.186
1 0.14100000000000001 6.204 9.228
1 0.12300000000000001 6.162 12.15
1 0.17700000000000002 6.279 15.081
1 0.09300000000000001 6.177 18.075
1 0.24900000000000003 6.234 21.252
1 0.063 6.186 24.27
1 0.255 6.15 27.114
1 0.14100000000000001 9.186 0.21300000000000002
1 0.0030000000000000005 9.099 3.261
1 0.045000000000000005 9.183 6.018
1 0.07500000000000001 9.237 9.276
1 0.21900000000000003 9.192 12.207
1 0.08400000000000002 9.066 15.168
1 0.28800000000000003 9.291 18.183
1 0.21600000000000003 9.207 21.102
1 0.13500000000000004 9.183 24.072
1 0.03900000000000001 9.198 27.075
1 0.054000000000000006 12.222 0.252
1 0.23400000000000004 12.0 3.243
1 0.07200000000000001 12.297 6.267
1 0.06900000000000002 12.261 9.219
1 0.06000000000000001 12.099 12.081
1 0.09600000000000002 12.165 15.246
1 0.006000000000000001 12.042 18.246
1 0.09000000000000001 12.132 21.048
1 0.06900000000000002 12.0 24.018
1 0.20100000000000004 12.09 27.108
1 0.12000000000000002 15.147 0.18600000000000003
1 0.29100000000000004 15.228 3.249
1 0.03300000000000001 15.297 6.2700000000000005
1 0.07800000000000001 15.048 9.234
1 0.2760000000000001 15.141 12.285
1 0.009000000000000001 15.15 15.006
1 0.18600000000000003 15.222 18.075
1 0.28800000000000003 15.006 21.15
1 0.261 15.255 24.066
1 0.16200000000000003 15.159 27.18
1 0.12000000000000002 18.225 0.11400000000000002
1 0.28500000000000003 18.225 3.21
1 0.21900000000000003 18.156 6.258
1 0.054000000000000006 18.189 9.264
1 0.10800000000000001 18.066 12.033
1 0.08400000000000002 18.249 15.009
1 0.12300000000000001 18.06 18.261
1 0.15000000000000002 18.108 21.171
1 0.29400000000000004 18.183 24.189
1 0.06000000000000001 18.297 27.132
1 0.23700000000000004 21.192 0.18300000000000002
1 0.29700000000000004 21.048 3.2640000000000002
1 0.126 21.216 6.048
1 0.28500000000000003 21.114 9.159
1 0.28500000000000003 21.057 12.063
1 0.14700000000000002 21.075 15.033
1 0.21000000000000002 21.087 18.264
1 0.20700000000000002 21.051 21.126
1 0.14100000000000001 21.033 24.042
1 0.09000000000000001 21.255 27.084
1 0.03300000000000001 24.138 0.29400000000000004
1 0.21300000000000002 24.258 3.003
1 0.12300000000000001 24.138 6.141
1 0.29100000000000004 24.261 9.099
1 0.07800000000000001 24.027 12.243
1 0.07200000000000001 24.267 15.138
1 0.19200000000000003 24.108 18.042
1 0.05100000000000001 24.045 21.0
1 0.2790000000000001 24.276 24.042
1 0.06000000000000001 24.108 27.06
1 0.28200000000000003 27.297 0.13200000000000003
1 0.11700000000000002 27.234 3.021
1 0.18300000000000002 27.195 6.0
1 0.29400000000000004 27.075 9.204
1 0.29700000000000004 27.177 12.102
1 0.29100000000000004 27.15 15.108
1 0.15900000000000003 27.123 18.222
1 0.13500000000000004 27.132 21.249
1 0.07800000000000001 27.036 24.135
1 0.03300000000000001 27.24 27.27
1 3.003 0.12300000000000001 0.18900000000000003
1 3.267 0.054000000000000006 3.081
1 3.039 0.24900000000000003 6.105
1 3.153 0.09300000000000001 9.024
1 3.192 0.19200000000000003 12.198
1 3.186 0.16500000000000004 15.06
1 3.273 0.07800000000000001 18.168
1 3.141 0.23400000000000004 21.114
1 3.189 0.045000000000000005 24.222
1 3.2760000000000002 0.129 27.009
1 3.102 3.087 0.2730000000000001
1 3.12 3.243 3.165
1 3.246 3.171 6.168
1 3.234 3.1350000000000002 9.255
1 3.075 3.072 12.015
1 3.144 3.039 15.087
1 3.168 3.291 18.225
1 3.213 3.099 21.228
1 3.063 3.213 24.24
1 3.069 3.129 27.225