ITEM: TIMESTEP
1000
ITEM: NUMBER OF ATOMS
666
ITEM: BOX BOUNDS xy xz yz pp pp pp
-3.5000000000000000e+00 1.0900000000000000e+01 -3.5000000000000000e+00
0.0000000000000000e+00 8.7000000000000011e+00 2.1000000000000001e+00
0.0000000000000000e+00 1.0000000000000000e+01 1.3000000000000000e+00
ITEM: ATOMS id type xs ys zs
1 1 0.181954 0.293707 0.0624987
2 1 0.382903 0.401283 0.239762
80 1 0.2924 0.437794 0.305679
4 1 0.183701 0.237323 0.308803
30 1 0.443221 0.493964 0.139002
362 1 0.454679 0.320695 0.239351
7 1 0.293443 0.250527 0.22431
8 1 0.234755 0.37031 0.221721
9 1 0.250602 0.0954158 0.217018
51 1 0.230015 0.146295 0.137696
11 1 0.365691 0.192942 0.241036
50 1 0.116295 0.275629 0.243471
13 1 0.0639974 0.393737 0.10061
14 1 0.0186595 0.356617 0.203817
15 1 0.332882 0.169843 0.0545402
42 1 0.260595 0.490315 0.158973
17 1 0.478135 0.0543345 0.107488
18 1 0.187671 0.17208 0.0280477
19 1 0.388898 0.125116 0.140468
20 1 0.136823 0.0300866 0.297021
34 1 0.133042 0.430912 0.260765
22 1 0.0756233 0.180742 0.0771531
23 1 0.164118 0.0437396 0.0831125
142 1 0.0369395 0.0518996 0.0112063
25 1 0.450168 0.361578 0.144844
16 1 0.0340756 0.0188134 0.122744
27 1 0.200006 0.26575 0.165838
28 1 0.0575074 0.261122 0.150169
52 1 0.123875 0.0382474 0.1935
163 1 0.147174 0.488571 0.163212
31 1 0.174244 0.15838 0.233502
32 1 0.349187 0.230732 0.137244
186 1 0.412541 0.0997372 0.038184
341 1 0.482106 0.228402 0.284393
90 1 0.327943 0.284548 0.307727
36 1 0.0906847 0.146381 0.179341
37 1 0.296811 0.0521619 0.300685
38 1 0.23419 0.146058 0.3099
39 1 0.192918 0.459596 0.0744542
40 1 0.299233 0.276699 0.0623013
41 1 0.152806 0.371359 0.166924
26 1 0.0314608 0.318167 0.311381
5 1 0.163993 0.346365 0.319725
44 1 0.418112 0.367199 0.042618
45 1 0.338964 0.35844 0.15045
153 1 0.294289 0.419698 0.0853099
47 1 0.413143 0.0879134 0.22851
48 1 0.268893 0.0257346 0.103572
137 1 0.451298 0.244682 0.0545907
12 1 0.0492153 0.108765 0.298118
6 1 0.482917 0.214465 0.175373
29 1 0.0373892 0.494646 0.132854
33 1 0.050234 0.489623 0.230693
43 1 0.0627196 0.478702 0.00665042
100 1 0.126227 0.356342 0.0171214
189 1 0.305157 0.00250406 0.195862
385 1 0.465926 0.342599 0.333149
73 1 0.0578087 0.491329 0.619294
54 1 0.204036 0.260767 0.484035
55 1 0.110657 0.211334 0.419257
430 1 0.0894721 0.141486 0.597457
57 1 0.135998 0.12895 0.504619
58 1 0.403725 0.199329 0.441482
59 1 0.239838 0.42778 0.544475
60 1 0.113725 0.0939781 0.373672
61 1 0.147156 0.289516 0.580574
62 1 0.418986 0.44097 0.553232
63 1 0.305716 0.435168 0.417798
74 1 0.355889 0.190354 0.360161
65 1 0.116996 0.42382 0.552658
64 1 0.132916 0.000490273 0.488264
98 1 0.0284768 0.0343166 0.477544
68 1 0.0641118 0.340316 0.405313
69 1 0.381049 0.452594 0.648849
70 1 0.216744 0.0596986 0.387954
71 1 0.223687 0.183983 0.410405
438 1 0.377626 0.297705 0.553533
434 1 0.493281 0.241455 0.504454
35 1 0.187033 0.464966 0.35366
75 1 0.0625763 0.214365 0.52742
76 1 0.0242123 0.21225 0.649332
77 1 0.348742 0.0626175 0.393136
78 1 0.172168 0.0644703 0.567282
79 1 0.435625 0.231905 0.605236
406 1 0.475663 0.342515 0.440407
81 1 0.308979 0.24589 0.649716
82 1 0.31957 0.373275 0.495384
83 1 0.36402 0.330556 0.413692
84 1 0.224033 0.317549 0.384084
85 1 0.0137125 0.318309 0.512036
86 1 0.150868 0.34706 0.469137
405 1 0.48168 0.147347 0.392361
88 1 0.274739 0.346013 0.60283
96 1 0.380693 0.0759765 0.491835
97 1 0.342253 0.154311 0.554419
91 1 0.222355 0.21851 0.581125
255 1 0.452055 0.457216 0.432834
93 1 0.30021 0.2317 0.493103
103 1 0.0526666 0.379801 0.661512
95 1 0.268762 0.101198 0.482545
56 1 0.115661 0.463121 0.463108
67 1 0.0525776 0.223577 0.349516
159 1 0.0493497 0.436664 0.355903
131 1 0.325486 0.117548 0.646549
149 1 0.211194 0.109168 0.64995
303 1 0.273892 0.0106553 0.575852
134 1 0.263049 0.464692 0.646713
94 1 0.40649 0.0511926 0.58103
53 1 0.388508 0.430355 0.3443
330 1 0.0921904 0.0205349 0.664981
120 1 0.166073 0.347223 0.660012
66 1 0.4319 0.352053 0.65286
132 1 0.040831 0.108921 0.697877
3 1 0.340219 0.391325 0.992286
157 1 0.295219 0.162148 0.948827
102 1 0.348408 0.335871 0.767557
508 1 0.439787 0.194442 0.78919
121 1 0.0210632 0.115615 0.821183
105 1 0.154508 0.143522 0.93677
106 1 0.235831 0.291423 0.84266
107 1 0.0392162 0.419249 0.813394
139 1 0.463096 0.44513 0.726263
109 1 0.0703402 0.320739 0.7516
110 1 0.408798 0.0996751 0.709985
111 1 0.0454523 0.4058 0.913243
108 1 0.163262 0.209147 0.675769
298 1 0.48338 0.0179826 0.74643
114 1 0.160422 0.138261 0.833455
151 1 0.367681 0.227184 0.719588
116 1 0.361253 0.120247 0.88636
155 1 0.213821 0.0624556 0.896456
148 1 0.40921 0.0626995 0.803476
119 1 0.254705 0.341963 0.711339
496 1 0.00519401 0.460972 0.720082
127 1 0.136465 0.47694 0.731387
122 1 0.253482 0.094185 0.744597
123 1 0.0689437 0.308932 0.843403
124 1 0.331784 0.383249 0.879844
112 1 0.269337 0.0167308 0.813466
150 1 0.289842 0.166759 0.824578
446 1 0.0207171 0.0777341 0.915769
128 1 0.480003 0.272839 0.867964
21 1 0.318103 0.060312 0.989831
507 1 0.455229 0.399286 0.821466
498 1 0.42377 0.052104 0.927769
126 1 0.157602 0.467888 0.841176
133 1 0.431092 0.189256 0.953741
152 1 0.380768 0.282629 0.969771
135 1 0.233805 0.269209 0.958304
136 1 0.256156 0.436756 0.975247
156 1 0.128516 0.225974 0.787996
104 1 0.101768 0.23362 0.984412
284 1 0.344772 0.460026 0.745911
140 1 0.347397 0.275777 0.875268
141 1 0.244521 0.221343 0.746652
154 1 0.477002 0.432169 0.924698
143 1 0.126268 0.0982916 0.748576
144 1 0.167592 0.344286 0.905091
145 1 0.185463 0.384751 0.773726
146 1 0.0948239 0.216557 0.892614
117 1 0.275885 0.467846 0.852263
130 1 0.00982193 0.273293 0.948536
491 1 0.485332 0.0327704 0.845779
332 1 0.156262 0.452674 0.937292
477 1 0.486805 0.321944 0.756573
158 1 0.33587 0.61909 0.168822
167 1 0.350599 0.961126 0.0987113
192 1 0.36779 0.512469 0.207317
161 1 0.156477 0.793672 0.0465578
162 1 0.245981 0.746424 0.257375
216 1 0.298288 0.676364 0.297847
164 1 0.0880999 0.907117 0.119629
165 1 0.261993 0.524788 0.256792
643 1 0.447028 0.987399 0.00755453
262 1 0.183487 0.939619 0.322435
168 1 0.257808 0.596836 0.0945528
169 1 0.0694652 0.682389 0.118322
322 1 0.334132 0.552327 0.012022
171 1 0.379975 0.545935 0.0892242
172 1 0.165341 0.565339 0.301945
173 1 0.279691 0.822915 0.0698258
174 1 0.210576 0.877578 0.132343
175 1 0.2283 0.629747 0.204519
190 1 0.0034243 0.90265 0.0518441
537 1 0.119279 0.613157 0.0511879
180 1 0.384098 0.988708 0.308708
179 1 0.183461 0.734964 0.16981
532 1 0.428741 0.75844 0.273023
181 1 0.365059 0.745058 0.196386
182 1 0.171015 0.933858 0.214083
183 1 0.364444 0.845561 0.2628
184 1 0.126419 0.603162 0.154644
185 1 0.276054 0.897387 0.270289
203 1 0.0181287 0.875801 0.211804
187 1 0.105387 0.636095 0.257396
604 1 0.0155348 0.794579 0.287183
215 1 0.0225616 0.66253 0.318943
250 1 0.0297865 0.91247 0.305944
191 1 0.305098 0.854586 0.170138
177 1 0.41078 0.966504 0.194677
193 1 0.0778006 0.786198 0.195209
194 1 0.381671 0.631139 0.249136
195 1 0.251302 0.695778 0.041151
196 1 0.140734 0.785332 0.274499
197 1 0.379574 0.67217 0.0598584
198 1 0.326032 0.74649 0.109566
166 1 0.0718875 0.826515 0.0243726
270 1 0.206719 0.958375 0.0315703
201 1 0.458719 0.874246 0.184289
563 1 0.0156018 0.678916 0.0407383
160 1 0.00638723 0.775641 0.119898
204 1 0.42288 0.900725 0.0980802
561 1 0.45456 0.779068 0.0975992
24 1 0.435304 0.553667 0.287072
296 1 0.414558 0.849211 0.0085377
176 1 0.485653 0.675422 0.0818339
535 1 0.495785 0.734457 0.178831
601 1 0.4819 0.953036 0.26097
536 1 0.0142687 0.649066 0.217679
324 1 0.320567 0.938947 0.00512528
125 1 0.47459 0.512818 0.00779057
205 1 0.142007 0.911244 0.433854
288 1 0.308952 0.918272 0.625393
260 1 0.203397 0.718279 0.445761
208 1 0.0235873 0.658183 0.416102
209 1 0.316277 0.564279 0.340746
265 1 0.103564 0.787293 0.596919
211 1 0.182334 0.821352 0.47894
221 1 0.152599 0.675008 0.349177
213 1 0.318414 0.735029 0.478774
214 1 0.452363 0.68627 0.597828
207 1 0.483848 0.579932 0.491654
212 1 0.0469311 0.957514 0.388601
571 1 0.480401 0.574021 0.611228
256 1 0.04967 0.97001 0.578062
219 1 0.0337146 0.78047 0.484544
220 1 0.223064 0.876015 0.562223
242 1 0.246904 0.517437 0.43654
264 1 0.0856129 0.588908 0.43932
223 1 0.284399 0.602582 0.539554
254 1 0.461703 0.773365 0.425456
225 1 0.308654 0.852438 0.437908
226 1 0.258106 0.795452 0.343381
227 1 0.17378 0.596333 0.520066
574 1 0.425025 0.911277 0.566046
229 1 0.344546 0.532529 0.485355
263 1 0.179962 0.737309 0.552166
231 1 0.372394 0.541982 0.576329
289 1 0.152607 0.729001 0.659131
233 1 0.0738169 0.618239 0.604146
234 1 0.458306 0.798174 0.635519
235 1 0.123343 0.786861 0.383124
230 1 0.0785581 0.672736 0.515989
237 1 0.349294 0.93815 0.512978
170 1 0.416455 0.548707 0.390563
239 1 0.347375 0.743651 0.364932
240 1 0.197923 0.644036 0.607971
257 1 0.0227616 0.822469 0.39031
87 1 0.411827 0.983979 0.402803
243 1 0.307336 0.807232 0.56536
244 1 0.35894 0.723048 0.569105
245 1 0.223438 0.613115 0.399932
246 1 0.117034 0.891423 0.53305
247 1 0.398724 0.876733 0.347811
248 1 0.35283 0.653083 0.43341
241 1 0.181188 0.502949 0.621351
280 1 0.43768 0.997616 0.664384
258 1 0.41012 0.865661 0.466254
252 1 0.27008 0.925798 0.378832
72 1 0.263106 0.958837 0.468858
224 1 0.425136 0.670182 0.508152
274 1 0.121231 0.923266 0.627532
306 1 0.298442 0.607412 0.634164
251 1 0.481573 0.825563 0.518537
259 1 0.00996007 0.895545 0.484637
178 1 0.0383333 0.549696 0.343094
228 1 0.0399179 0.510518 0.526121
428 1 0.496733 0.997173 0.473032
217 1 0.442322 0.670158 0.335183
232 1 0.497492 0.665354 0.415163
266 1 0.371613 0.864211 0.663956
253 1 0.0212265 0.647282 0.691726
267 1 0.292657 0.798311 0.870873
268 1 0.212782 0.611952 0.737077
269 1 0.356426 0.704382 0.709257
292 1 0.340782 0.674333 0.965571
315 1 0.145024 0.690923 0.767711
118 1 0.256993 0.982075 0.922513
273 1 0.445995 0.661959 0.903035
553 1 0.0479565 0.593264 0.974546
99 1 0.126538 0.995216 0.993947
276 1 0.269173 0.667598 0.896759
277 1 0.108493 0.553623 0.811593
661 1 0.493145 0.589874 0.726382
333 1 0.153178 0.884259 0.780349
188 1 0.189398 0.70563 0.962482
281 1 0.40703 0.821055 0.747713
331 1 0.127858 0.908704 0.898012
283 1 0.282107 0.743109 0.786514
329 1 0.455042 0.896438 0.818493
285 1 0.0862879 0.765398 0.856328
316 1 0.162938 0.859216 0.678413
287 1 0.17317 0.712109 0.865653
327 1 0.477102 0.725535 0.700763
652 1 0.0651496 0.909849 0.731127
272 1 0.120532 0.989027 0.807923
291 1 0.49393 0.917035 0.682083
317 1 0.238756 0.863671 0.826844
293 1 0.239204 0.823002 0.729705
294 1 0.292636 0.980304 0.715138
295 1 0.361306 0.92027 0.782074
328 1 0.0433103 0.640077 0.862914
301 1 0.310377 0.806095 0.961795
307 1 0.466302 0.625884 0.992611
299 1 0.0946113 0.765272 0.949901
300 1 0.135942 0.563046 0.909014
326 1 0.389742 0.721607 0.846965
282 1 0.0165028 0.584621 0.781646
236 1 0.109059 0.586844 0.696241
304 1 0.378967 0.607092 0.785056
305 1 0.267786 0.517758 0.742673
320 1 0.0309096 0.860575 0.850669
319 1 0.0583233 0.753183 0.759996
308 1 0.358207 0.944336 0.878715
309 1 0.322849 0.579712 0.897199
286 1 0.440553 0.922473 0.925474
311 1 0.220943 0.849243 0.933144
312 1 0.424044 0.795104 0.919581
313 1 0.262868 0.612102 0.810915
314 1 0.393816 0.588506 0.673985
318 1 0.212366 0.565551 0.995925
249 1 0.278687 0.734469 0.668196
310 1 0.400097 0.517224 0.928327
302 1 0.433709 0.523016 0.823291
206 1 0.00235775 0.763106 0.674846
275 1 0.0012716 0.86248 0.957564
297 1 0.499371 0.764522 0.985506
290 1 0.0805543 0.99929 0.906043
271 1 0.21001 0.994767 0.67893
334 1 0.769108 0.301054 0.076879
335 1 0.656666 0.201185 0.00328469
336 1 0.540593 0.0756052 0.193433
337 1 0.927077 0.311794 0.150816
558 1 0.50913 0.460744 0.208269
339 1 0.756076 0.188096 0.0350374
441 1 0.590625 0.19933 0.32921
46 1 0.563514 0.0677361 0.0243209
342 1 0.912792 0.184021 0.179521
343 1 0.793894 0.420411 0.238821
344 1 0.927921 0.274758 0.273323
345 1 0.945331 0.0810534 0.203067
346 1 0.674649 0.179678 0.167119
347 1 0.640475 0.137758 0.0902347
348 1 0.725163 0.0804681 0.241804
349 1 0.843428 0.23717 0.098956
350 1 0.937829 0.41691 0.0833608
420 1 0.796336 0.19433 0.297568
352 1 0.625042 0.267896 0.11327
354 1 0.660223 0.486341 0.126517
363 1 0.99746 0.345284 0.013768
355 1 0.846429 0.0911214 0.267309
356 1 0.642348 0.1319 0.265836
357 1 0.54323 0.469798 0.089898
358 1 0.592367 0.442234 0.261865
359 1 0.945314 0.108123 0.104088
360 1 0.722588 0.266278 0.291908
559 1 0.707329 0.440163 0.206323
479 1 0.869271 0.298012 0.000859786
383 1 0.737879 0.106223 0.135216
364 1 0.715045 0.339316 0.022231
376 1 0.60559 0.00395257 0.212588
366 1 0.824971 0.347302 0.161969
367 1 0.79503 0.225684 0.208605
368 1 0.609136 0.321167 0.277464
369 1 0.697416 0.309476 0.196825
525 1 0.836117 0.470922 0.139113
371 1 0.570063 0.343912 0.0883447
372 1 0.581169 0.20041 0.228518
10 1 0.978918 0.190243 0.250783
374 1 0.820273 0.0545904 0.0705117
382 1 0.897746 0.384933 0.227324
340 1 0.840028 0.452009 0.0374113
377 1 0.958399 0.400969 0.300765
378 1 0.716049 0.394706 0.103694
379 1 0.59347 0.357712 0.178614
380 1 0.697202 0.0483703 0.0483577
373 1 0.5285 0.177919 0.0720818
351 1 0.51064 0.0822767 0.300343
531 1 0.819701 0.0331075 0.174408
49 1 0.982896 0.242557 0.0696463
453 1 0.667107 0.421719 0.00788151
476 1 0.877841 0.183333 0.0212028
456 1 0.600952 0.284707 0.00127843
381 1 0.511671 0.495927 0.330384
391 1 0.826238 0.388075 0.327834
431 1 0.925127 0.0795681 0.32967
398 1 0.664265 0.465186 0.51778
386 1 0.604937 0.230933 0.431786
387 1 0.788349 0.147398 0.41073
388 1 0.847229 0.283084 0.365337
389 1 0.72772 0.355769 0.504151
613 1 0.865302 0.0864413 0.424123
442 1 0.70309 0.0752071 0.508181
409 1 0.508477 0.12519 0.493435
393 1 0.753394 0.223399 0.489874
394 1 0.644515 0.139165 0.582622
395 1 0.640862 0.260955 0.636211
396 1 0.538775 0.284282 0.383199
460 1 0.636361 0.0367239 0.638807
89 1 0.940716 0.310039 0.422089
399 1 0.818085 0.437463 0.421406
400 1 0.588968 0.425868 0.365867
499 1 0.9562 0.0966935 0.592186
402 1 0.737745 0.304792 0.416673
415 1 0.519462 0.476027 0.615399
404 1 0.765245 0.297791 0.578216
472 1 0.717283 0.414007 0.604812
436 1 0.764369 0.160968 0.58355
492 1 0.825267 0.440976 0.625672
408 1 0.620985 0.110243 0.476166
390 1 0.895322 0.167045 0.660915
470 1 0.557581 0.374292 0.642698
411 1 0.841881 0.35154 0.483097
412 1 0.852262 0.188707 0.486597
413 1 0.680194 0.353185 0.346537
414 1 0.83445 0.256813 0.651831
429 1 0.989046 0.0863477 0.401542
416 1 0.594281 0.313719 0.562938
417 1 0.631332 0.226538 0.520593
418 1 0.822105 0.468312 0.523768
419 1 0.927247 0.196209 0.355832
365 1 0.922683 0.419637 0.393544
421 1 0.527592 0.0529421 0.569007
422 1 0.964249 0.320688 0.603861
423 1 0.622044 0.353015 0.460983
424 1 0.929279 0.194138 0.547927
425 1 0.572323 0.0818771 0.374183
426 1 0.698589 0.475891 0.404372
218 1 0.978821 0.414639 0.474375
439 1 0.921172 0.0783331 0.499418
437 1 0.702578 0.184326 0.37722
440 1 0.501015 0.365926 0.550117
592 1 0.554656 0.467914 0.476032
568 1 0.813197 0.0695037 0.582729
433 1 0.878686 0.284941 0.545735
92 1 0.979568 0.205147 0.443893
435 1 0.913893 0.407573 0.573829
467 1 0.552345 0.0963145 0.664838
432 1 0.684531 0.0360256 0.377084
138 1 0.519509 0.164329 0.594043
494 1 0.654888 0.493519 0.609804
427 1 0.806546 0.489902 0.335678
443 1 0.959639 0.46047 0.966996
444 1 0.557988 0.0637698 0.924083
445 1 0.84807 0.0786965 0.851338
501 1 0.645537 0.20411 0.907371
403 1 0.868877 0.379665 0.708063
448 1 0.899097 0.0427287 0.718288
449 1 0.644466 0.359745 0.695755
370 1 0.595924 0.488846 0.990588
451 1 0.826869 0.200608 0.8168
397 1 0.758857 0.112686 0.682775
495 1 0.918501 0.349569 0.891036
454 1 0.583295 0.43957 0.721355
455 1 0.828976 0.376198 0.96509
147 1 0.953238 0.15324 0.899439
129 1 0.956422 0.171449 0.752453
458 1 0.896071 0.00778172 0.900801
459 1 0.689685 0.366533 0.818072
473 1 0.579232 0.303943 0.785306
461 1 0.712611 0.345322 0.919973
468 1 0.522306 0.342092 0.9642
463 1 0.69446 0.109489 0.958034
464 1 0.586896 0.291773 0.90421
465 1 0.954078 0.267638 0.821945
503 1 0.914265 0.369676 0.79476
504 1 0.725757 0.0473344 0.881256
658 1 0.681135 0.492363 0.78292
469 1 0.65323 0.228308 0.794302
502 1 0.780297 0.305034 0.806123
471 1 0.776888 0.263565 0.915503
481 1 0.510987 0.234641 0.675054
113 1 0.944651 0.280565 0.703761
509 1 0.781282 0.48977 0.923647
475 1 0.567847 0.41052 0.84352
493 1 0.693727 0.0370179 0.777017
480 1 0.741703 0.303881 0.700744
478 1 0.659262 0.435941 0.909971
506 1 0.843599 0.42259 0.86909
505 1 0.564092 0.185839 0.730619
452 1 0.533303 0.168038 0.854303
101 1 0.530014 0.170829 0.970315
483 1 0.773054 0.424393 0.727667
497 1 0.759068 0.193035 0.740653
500 1 0.970403 0.496228 0.86652
486 1 0.856107 0.205108 0.919036
487 1 0.802913 0.0687856 0.971292
488 1 0.600554 0.0919858 0.776747
489 1 0.696424 0.148239 0.837895
511 1 0.819433 0.101654 0.758169
510 1 0.908871 0.491222 0.766768
457 1 0.674977 0.170387 0.684202
450 1 0.964093 0.126824 0.999068
512 1 0.94442 0.737081 0.21368
513 1 0.930464 0.640653 0.122369
541 1 0.652203 0.579247 0.291464
564 1 0.603631 0.723683 0.101294
516 1 0.664038 0.714719 0.291103
517 1 0.9132 0.864463 0.280316
543 1 0.557464 0.599732 0.0717542
542 1 0.938489 0.539557 0.176839
540 1 0.777948 0.522341 0.0175859
521 1 0.795288 0.565656 0.124068
522 1 0.840459 0.695642 0.151836
519 1 0.685488 0.954026 0.185732
524 1 0.560301 0.582768 0.240157
589 1 0.611728 0.809497 0.298591
526 1 0.728179 0.869313 0.230088
527 1 0.78668 0.671264 0.254376
528 1 0.704652 0.570229 0.201603
529 1 0.673167 0.566802 0.0522296
530 1 0.676584 0.949007 0.284268
560 1 0.86394 0.727342 0.31308
375 1 0.859519 0.954386 0.275596
523 1 0.561003 0.99053 0.117417
534 1 0.928489 0.837934 0.146946
624 1 0.688229 0.699177 0.0323501
518 1 0.905179 0.625455 0.292073
562 1 0.846382 0.804427 0.0665418
538 1 0.698534 0.925566 0.0761351
520 1 0.78478 0.91462 0.132772
648 1 0.738866 0.657162 0.110366
384 1 0.95006 0.514414 0.28337
632 1 0.546082 0.933757 0.0384222
666 1 0.592383 0.825403 0.0500408
544 1 0.571345 0.714453 0.243692
545 1 0.743475 0.81534 0.082776
546 1 0.601747 0.572904 0.143083
515 1 0.93102 0.750384 0.0434314
548 1 0.672802 0.713846 0.168264
549 1 0.795064 0.796405 0.26556
199 1 0.507559 0.622407 0.166299
551 1 0.642688 0.813202 0.16681
552 1 0.837778 0.58015 0.214238
338 1 0.955655 0.549918 0.0737901
554 1 0.79679 0.80852 0.162225
555 1 0.58757 0.887212 0.132123
638 1 0.802278 0.680205 0.0134059
557 1 0.555822 0.851937 0.233832
200 1 0.902101 0.967958 0.0596645
361 1 0.906154 0.952039 0.163658
514 1 0.879842 0.612071 0.0320555
605 1 0.570739 0.990791 0.313164
556 1 0.72698 0.870488 0.329765
202 1 0.991132 0.997652 0.236654
353 1 0.71353 0.500937 0.30127
533 1 0.541582 0.628201 0.332633
606 1 0.505195 0.854502 0.332158
623 1 0.813912 0.948828 0.000969289
650 1 0.841093 0.994311 0.644934
566 1 0.844407 0.933904 0.389524
410 1 0.955443 0.557316 0.551226
567 1 0.891791 0.855044 0.614289
392 1 0.94441 0.518679 0.450588
570 1 0.612644 0.897373 0.481272
569 1 0.990778 0.81656 0.590183
580 1 0.780146 0.992952 0.34808
573 1 0.853244 0.574804 0.594197
222 1 0.913616 0.844599 0.375768
575 1 0.801389 0.562268 0.44927
576 1 0.630733 0.575588 0.546177
577 1 0.570791 0.568023 0.40986
578 1 0.564466 0.699953 0.631771
579 1 0.561198 0.664628 0.54167
651 1 0.884239 0.684934 0.65842
581 1 0.567096 0.803692 0.568455
582 1 0.774148 0.787077 0.370394
583 1 0.803858 0.820974 0.460058
584 1 0.554844 0.946731 0.551247
585 1 0.597478 0.852994 0.390146
407 1 0.792101 0.595202 0.351794
587 1 0.912599 0.557259 0.379119
588 1 0.979802 0.662023 0.606987
261 1 0.924531 0.927984 0.446914
590 1 0.68194 0.789115 0.532285
591 1 0.921532 0.962912 0.549419
572 1 0.590474 0.58186 0.661287
593 1 0.762079 0.680093 0.516943
594 1 0.683444 0.699522 0.595341
595 1 0.905984 0.620587 0.489771
550 1 0.69527 0.652116 0.362744
597 1 0.905432 0.772648 0.471112
598 1 0.865221 0.711623 0.567146
599 1 0.794609 0.816805 0.563728
625 1 0.688714 0.845234 0.62923
210 1 0.905247 0.695283 0.38662
602 1 0.760013 0.553344 0.541919
603 1 0.637064 0.751464 0.379564
645 1 0.706112 0.960969 0.56669
401 1 0.747776 0.979724 0.460705
614 1 0.788978 0.693965 0.422735
607 1 0.561523 0.756086 0.475891
608 1 0.651128 0.6838 0.460278
609 1 0.816024 0.937947 0.503864
610 1 0.711825 0.856502 0.427156
611 1 0.744516 0.626337 0.615323
612 1 0.677917 0.577513 0.44418
596 1 0.543604 0.937645 0.414
653 1 0.96611 0.991649 0.651341
586 1 0.971228 0.984766 0.340111
238 1 0.948599 0.508461 0.648971
617 1 0.77206 0.96706 0.751521
539 1 0.705819 0.83207 0.98935
619 1 0.930468 0.859056 0.80068
620 1 0.752869 0.730253 0.781984
490 1 0.929057 0.557698 0.943209
622 1 0.856845 0.889788 0.721014
615 1 0.86477 0.551834 0.701702
665 1 0.830411 0.834192 0.977673
616 1 0.791854 0.614633 0.759178
626 1 0.907232 0.768689 0.914968
627 1 0.940004 0.95232 0.959267
628 1 0.591016 0.75161 0.714938
629 1 0.664362 0.933435 0.842227
630 1 0.952792 0.737882 0.830663
631 1 0.609246 0.657175 0.768178
474 1 0.53793 0.902593 0.938532
633 1 0.630996 0.776665 0.814675
634 1 0.764244 0.848462 0.824539
635 1 0.8229 0.732308 0.852608
636 1 0.661055 0.665601 0.86607
637 1 0.923367 0.657377 0.74983
447 1 0.531449 0.599245 0.866743
639 1 0.69088 0.597843 0.715825
640 1 0.586484 0.60299 0.958247
547 1 0.59707 0.713417 0.995403
642 1 0.847676 0.62612 0.927015
621 1 0.91944 0.606106 0.847228
618 1 0.578549 0.958615 0.749604
279 1 0.573161 0.712415 0.903893
646 1 0.712377 0.612362 0.951939
647 1 0.84725 0.865535 0.887263
325 1 0.966361 0.69342 0.950652
649 1 0.730867 0.746469 0.917773
278 1 0.541446 0.803978 0.868785
655 1 0.674247 0.965743 0.96333
565 1 0.69931 0.979876 0.67244
485 1 0.80052 0.503856 0.809523
654 1 0.647778 0.888092 0.756094
641 1 0.790768 0.739077 0.684235
656 1 0.882764 0.759908 0.737944
657 1 0.769813 0.925069 0.902746
644 1 0.981413 0.878403 0.678036
659 1 0.747562 0.589513 0.857092
660 1 0.63514 0.846667 0.930076
482 1 0.750032 0.517622 0.667771
662 1 0.559182 0.516707 0.805519
663 1 0.736109 0.822515 0.718773
664 1 0.565452 0.97505 0.852675
466 1 0.610764 0.531003 0.888679
323 1 0.513055 0.806283 0.774172
484 1 0.871882 0.969095 0.812346
115 1 0.997312 0.981588 0.74287
462 1 0.993017 0.980266 0.847643
600 1 0.578843 0.868548 0.671341
321 1 0.507474 0.68167 0.809074
ITEM: TIMESTEP
2000
ITEM: NUMBER OF ATOMS
666
ITEM: BOX BOUNDS xy xz yz pp pp pp
-3.5000000000000000e+00 1.0900000000000000e+01 -3.5000000000000000e+00
0.0000000000000000e+00 8.7000000000000011e+00 2.1000000000000001e+00
0.0000000000000000e+00 1.0000000000000000e+01 1.3000000000000000e+00
ITEM: ATOMS id type xs ys zs
1 1 0.1514 0.29139 0.0595047
2 1 0.404188 0.434824 0.230954
80 1 0.304289 0.439385 0.301829
53 1 0.398495 0.426282 0.334689
351 1 0.441664 0.084041 0.267908
362 1 0.456198 0.337227 0.253068
7 1 0.281369 0.322389 0.243538
8 1 0.249748 0.423136 0.200233
9 1 0.226681 0.0812522 0.205119
51 1 0.194097 0.13752 0.111585
11 1 0.331166 0.218641 0.225969
50 1 0.14753 0.269097 0.253869
13 1 0.0611509 0.33687 0.106288
14 1 0.023598 0.368941 0.191009
15 1 0.317465 0.174802 0.0519492
34 1 0.125253 0.464439 0.23909
17 1 0.400878 0.0366685 0.140517
341 1 0.419544 0.204822 0.282492
19 1 0.344261 0.134945 0.124096
20 1 0.131057 0.0208012 0.295236
43 1 0.119433 0.48937 0.046677
22 1 0.073119 0.166765 0.0932102
23 1 0.152459 0.0251437 0.0812149
16 1 0.0252552 0.0330146 0.127389
25 1 0.440913 0.352403 0.149287
142 1 0.0568287 0.0613282 0.0108006
27 1 0.201472 0.294161 0.14787
10 1 0.0155237 0.175822 0.275178
52 1 0.10594 0.0277528 0.177692
18 1 0.192001 0.149734 0.0164487
31 1 0.210233 0.191158 0.208574
32 1 0.308124 0.2573 0.126714
186 1 0.385381 0.0626491 0.0480518
6 1 0.466344 0.24071 0.182096
90 1 0.310459 0.278245 0.32087
36 1 0.0709595 0.138176 0.190858
37 1 0.275119 0.00920325 0.298143
38 1 0.272474 0.130118 0.311754
39 1 0.192141 0.431057 0.0723112
40 1 0.265179 0.27979 0.0442687
41 1 0.127989 0.348128 0.184128
26 1 0.0456945 0.313312 0.273107
5 1 0.165805 0.375512 0.301829
44 1 0.413292 0.377802 0.0634493
45 1 0.348892 0.411357 0.154841
153 1 0.295351 0.402143 0.0734864
47 1 0.359595 0.108856 0.221591
48 1 0.243199 0.00714275 0.120026
137 1 0.449846 0.25288 0.0732796
12 1 0.0877003 0.11892 0.291613
163 1 0.135513 0.493412 0.147718
4 1 0.181009 0.233386 0.326725
21 1 0.258323 0.0448596 0.0123617
377 1 0.0132324 0.440179 0.294052
100 1 0.108541 0.363761 0.00694499
149 1 0.242948 0.115515 0.625059
54 1 0.202184 0.255717 0.488067
55 1 0.119997 0.227726 0.425144
430 1 0.105241 0.156542 0.58498
57 1 0.101494 0.123491 0.491538
58 1 0.407548 0.147794 0.448599
59 1 0.284044 0.432111 0.560344
60 1 0.117711 0.0997616 0.390205
61 1 0.191265 0.307095 0.572884
62 1 0.432466 0.480825 0.551955
63 1 0.294734 0.406224 0.452038
74 1 0.367001 0.206701 0.375428
65 1 0.13176 0.417119 0.554917
396 1 0.503772 0.250769 0.383339
228 1 0.0309346 0.4895 0.538935
68 1 0.070259 0.349435 0.431097
35 1 0.203172 0.456652 0.37948
70 1 0.181741 0.0239836 0.397068
71 1 0.239204 0.176391 0.407933
438 1 0.362543 0.228586 0.564108
440 1 0.46501 0.360772 0.537757
108 1 0.181381 0.231096 0.659181
75 1 0.0624114 0.232529 0.518433
76 1 0.0684796 0.293836 0.613377
77 1 0.356473 0.0854295 0.360891
78 1 0.180554 0.0918328 0.538768
79 1 0.431504 0.196771 0.622738
406 1 0.442005 0.309407 0.45261
134 1 0.256946 0.439646 0.659385
82 1 0.342087 0.351684 0.513534
83 1 0.3355 0.306314 0.415186
84 1 0.236765 0.339704 0.384832
241 1 0.161977 0.476582 0.648422
86 1 0.16642 0.364768 0.476809
385 1 0.458525 0.342903 0.348261
88 1 0.332451 0.359325 0.610376
96 1 0.358362 0.00565141 0.452671
97 1 0.329965 0.0798974 0.551906
91 1 0.24689 0.223402 0.563622
255 1 0.434712 0.429635 0.436356
93 1 0.314535 0.204624 0.480109
73 1 0.0590371 0.489872 0.631542
95 1 0.275753 0.0805798 0.450927
56 1 0.123382 0.477205 0.462369
429 1 0.0119859 0.11642 0.412998
85 1 0.00938048 0.331831 0.548665
159 1 0.0961153 0.458075 0.345706
66 1 0.417187 0.313825 0.63692
256 1 0.033655 0.0229648 0.571129
330 1 0.10871 0.036648 0.646796
94 1 0.449565 0.0731741 0.536659
288 1 0.356786 -0.00152838 0.62252
67 1 0.0518694 0.246254 0.356477
434 1 0.474718 0.207107 0.519157
280 1 0.465027 -0.000953139 0.618541
586 1 0.0187345 0.00430369 0.368656
132 1 0.0352006 0.151095 0.687566
3 1 0.379838 0.382879 0.976625
157 1 0.289239 0.15116 0.931556
102 1 0.373076 0.318946 0.743131
508 1 0.488607 0.163348 0.794994
103 1 0.0476855 0.379726 0.698231
105 1 0.166234 0.152608 0.911314
106 1 0.256703 0.311715 0.83611
104 1 0.103649 0.207131 0.978677
115 1 0.0122643 -0.00622502 0.760851
109 1 0.0350749 0.277059 0.775522
110 1 0.432955 0.0929479 0.704176
111 1 0.0668133 0.421358 0.943756
139 1 0.467169 0.433856 0.699226
99 1 0.168514 0.0347954 0.961268
114 1 0.117743 0.135462 0.825349
151 1 0.375763 0.196376 0.731649
116 1 0.402841 0.115671 0.92468
155 1 0.207839 0.0699964 0.858325
148 1 0.355503 0.0347878 0.81194
119 1 0.269142 0.349457 0.723093
152 1 0.383541 0.265226 0.955256
127 1 0.171774 0.455827 0.746898
122 1 0.283315 0.077725 0.771754
123 1 0.0749003 0.355338 0.866508
124 1 0.350532 0.407211 0.892652
81 1 0.291701 0.230444 0.680156
150 1 0.366783 0.158993 0.832003
446 1 0.0331802 0.140979 0.91643
128 1 0.478026 0.244923 0.865259
491 1 0.485346 0.0461126 0.858087
126 1 0.154171 0.49001 0.851534
498 1 0.476459 0.0778878 0.97206
290 1 0.0703628 0.011206 0.911505
133 1 0.466021 0.204391 0.99396
107 1 0.0402554 0.441995 0.805798
135 1 0.250632 0.281383 0.942977
136 1 0.268628 0.402479 0.984081
156 1 0.120096 0.221698 0.754179
118 1 0.270613 -0.00345852 0.907984
284 1 0.371946 0.45103 0.781964
140 1 0.357616 0.286063 0.872328
141 1 0.248497 0.196187 0.787213
120 1 0.136065 0.331455 0.689898
143 1 0.160149 0.0985982 0.715838
144 1 0.175161 0.353813 0.915255
145 1 0.208121 0.396197 0.810655
146 1 0.120978 0.262642 0.849439
117 1 0.298558 0.479704 0.865322
130 1 0.0137801 0.265134 0.968362
154 1 0.480938 0.454851 0.899426
507 1 0.452857 0.405185 0.811887
131 1 0.319325 0.098461 0.669588
500 1 0.0164984 0.494383 0.902085
468 1 0.500376 0.351836 0.983876
272 1 0.118699 0.010515 0.804165
121 1 0.00950082 0.146247 0.818623
477 1 0.486323 0.307879 0.769233
69 1 0.382506 0.461099 0.669906
158 1 0.372178 0.659084 0.130945
192 1 0.356563 0.526845 0.20205
537 1 0.0833212 0.584671 0.0136743
161 1 0.16743 0.750986 0.030952
162 1 0.28341 0.666779 0.220209
30 1 0.475351 0.520111 0.133916
164 1 0.0560969 0.904371 0.156407
165 1 0.23747 0.514051 0.282673
221 1 0.162684 0.714354 0.273832
643 1 0.417073 0.96834 0.063218
168 1 0.249305 0.579013 0.0818799
169 1 0.058995 0.66347 0.106806
177 1 0.386483 0.958277 0.225871
171 1 0.377377 0.533356 0.0873094
172 1 0.165897 0.581477 0.276031
173 1 0.288735 0.842832 0.0420249
174 1 0.160312 0.856004 0.167448
175 1 0.17176 0.621252 0.176196
176 1 0.48616 0.658497 0.0877115
199 1 0.477113 0.628908 0.187919
189 1 0.268116 0.982491 0.207713
179 1 0.172659 0.736746 0.126421
532 1 0.360063 0.742221 0.316145
181 1 0.435159 0.758779 0.190193
182 1 0.122271 0.934981 0.230343
183 1 0.353267 0.826587 0.23912
184 1 0.127859 0.59881 0.092888
185 1 0.24918 0.871555 0.278478
33 1 0.038356 0.512272 0.195232
187 1 0.066357 0.631693 0.234581
190 1 0.0471387 0.934199 0.0506351
215 1 0.0237636 0.681886 0.317705
296 1 0.396502 0.831883 0.0365678
191 1 0.256119 0.801134 0.190269
250 1 0.0225705 0.89855 0.315572
193 1 0.0433529 0.74109 0.183649
194 1 0.367059 0.642565 0.252719
195 1 0.275733 0.714485 0.0393746
196 1 0.121486 0.809301 0.268584
197 1 0.371236 0.67821 0.028988
198 1 0.299917 0.740193 0.123018
125 1 0.460872 0.500809 0.0195332
270 1 0.19686 0.902496 0.0641869
201 1 0.480387 0.920379 0.183241
563 1 0.0371634 0.704263 0.00800801
160 1 0.0776941 0.805561 0.0912806
204 1 0.394039 0.865814 0.130733
561 1 0.461459 0.785049 0.0805716
24 1 0.415699 0.551691 0.276259
601 1 0.437624 0.888279 0.305272
167 1 0.297714 0.909609 0.127587
42 1 0.256696 0.549413 0.173754
604 1 0.00143083 0.817577 0.241746
202 1 0.00575976 0.994759 0.254789
322 1 0.320421 0.549062 0.0101624
205 1 0.131679 0.896793 0.464658
217 1 0.428821 0.652988 0.329735
260 1 0.205802 0.740306 0.429133