666
Atoms. Timestep: 0
1 5.8234701156616210938 2.0950500965118408203 0.83419901132583618164
1 4.5817198753356933594 8.0053701400756835938 6.5441799163818359375
1 1.578209996223449707 7.2270498275756835938 6.5509901046752929688
1 2.7511498928070068359 3.6216399669647216797 3.3639900684356689453
1 1.6100200414657592773 5.2051000595092773438 1.6845799684524536133
1 8.8070096969604492188 4.6058001518249511719 9.7473697662353515625
1 5.0844302177429199219 8.3187999725341796875 7.4966998100280761719
1 3.0910499095916748047 8.080169677734375 7.3116898536682128906
1 5.1580100059509277344 1.6858899593353271484 0.082713097333908081055
1 6.8217101097106933594 7.5383200645446777344 8.1467504501342773438
1 3.3080899715423583984 1.3348499536514282227 9.8259897232055664062
1 5.1796998977661132812 7.5004301071166992188 4.1302499771118164062
1 1.9933799505233764648 2.8763399124145507812 4.7883601188659667969
1 0.37301298975944519043 2.3365800380706787109 0.66295999288558959961
1 2.2329499721527099609 3.3009400367736816406 2.455120086669921875
1 -0.91856902837753295898 7.3685097694396972656 4.1932001113891601562
1 1.6373599767684936523 3.9439001083374023438 9.82794952392578125
1 5.5990099906921386719 6.5427598953247070312 7.8403301239013671875
1 6.1442999839782714844 5.6892199516296386719 2.0345599651336669922
1 6.7528400421142578125 1.6233199834823608398 9.2541303634643554688
1 1.2321699857711791992 2.3515200614929199219 4.136280059814453125
1 3.7109200954437255859 3.0627400875091552734 3.4301500320434570312
1 4.5465002059936523438 1.0690900087356567383 1.7248400449752807617
1 -0.28569799661636352539 4.155139923095703125 3.5725901126861572266
1 1.7166999578475952148 7.1572499275207519531 8.6451997756958007812
1 5.5064101219177246094 2.2398700714111328125 4.2733898162841796875
1 7.5660700798034667969 5.2512297630310058594 8.4027004241943359375
1 -2.1936500072479248047 6.0505199432373046875 1.0607199668884277344
1 -1.1800099611282348633 5.7936601638793945312 0.33943998813629150391
1 9.1473798751831054688 2.0425701141357421875 8.2776899337768554688
1 3.4592700004577636719 3.9431200027465820312 9.7992696762084960938
1 6.3744997978210449219 4.7301301956176757812 1.404539942741394043
1 7.6237897872924804688 2.1028900146484375 1.7666100263595581055
1 7.1728801727294921875 1.3900400400161743164 4.135540008544921875
1 7.4259800910949707031 6.6172199249267578125 6.8202800750732421875
1 1.8175200223922729492 1.8858900070190429688 9.2712297439575195312
1 0.32023000717163085938 4.1411800384521484375 4.612400054931640625
1 6.0519199371337890625 2.3275499343872070312 9.7976102828979492188
1 5.9867701530456542969 4.6327099800109863281 0.29701301455497741699
1 1.2008199691772460938 2.0767099857330322266 3.1059200763702392578
1 0.0021146899089217185974 5.9086298942565917969 2.6785800457000732422
1 3.6963601112365722656 3.2553799152374267578 7.5850400924682617188
1 6.771160125732421875 3.9233100414276123047 0.71363598108291625977
1 3.5927898883819580078 4.9174799919128417969 4.9187002182006835938
1 6.1587800979614257812 1.2485300302505493164 0.26568800210952758789
1 7.2170000076293945312 2.4739201068878173828 3.9729399681091308594
1 0.75704997777938842773 3.379199981689453125 6.4851698875427246094
1 -1.176159977912902832 5.7884001731872558594 4.3199000358581542969
1 1.0064200162887573242 3.1059899330139160156 3.3185899257659912109
1 1.1367199420928955078 5.6416797637939453125 7.2479901313781738281
1 1.5257200002670288086 4.8585901260375976562 3.6775701045989990234
1 4.3514800071716308594 5.3732399940490722656 8.8537797927856445312
1 5.8792700767517089844 6.7351698875427246094 6.7913799285888671875
1 1.5715500116348266602 2.8274900913238525391 9.7989501953125
1 2.7747900485992431641 2.2948899269104003906 9.4905996322631835938
1 5.7350702285766601562 3.6071801185607910156 0.30945599079132080078
1 5.98406982421875 7.6947798728942871094 7.3980097770690917969
1 -0.65158998966217041016 3.6076900959014892578 1.3605600595474243164
1 8.2636003494262695312 0.99330699443817138672 5.5425601005554199219
1 -1.9941999912261962891 7.1567301750183105469 0.96556901931762695312
1 2.1548399925231933594 6.0366201400756835938 7.1569299697875976562
1 9.4331197738647460938 1.581009984016418457 7.3125200271606445312
1 3.8971400260925292969 6.9899501800537109375 0.16203500330448150635
1 4.2658300399780273438 1.7490700483322143555 3.2948000431060791016
1 5.7504100799560546875 3.2416799068450927734 7.2166800498962402344
1 7.3892798423767089844 1.0046999454498291016 1.5719499588012695312
1 1.9471600055694580078 1.8283499479293823242 4.8668498992919921875
1 5.9167499542236328125 3.4464800357818603516 5.1688799858093261719
1 6.0937800407409667969 5.6660699844360351562 0.23320800065994262695
1 3.6590700149536132812 2.0792200565338134766 4.1525201797485351562
1 3.9813699722290039062 5.72863006591796875 2.5623800754547119141
1 0.91211599111557006836 4.2453198432922363281 2.632289886474609375
1 -0.72841101884841918945 6.7744498252868652344 0.055459700524806976318
1 1.8847700357437133789 3.8784499168395996094 5.2785902023315429688
1 3.792530059814453125 1.9542299509048461914 1.5913599729537963867
1 6.6702599525451660156 6.7194700241088867188 5.9938302040100097656
1 7.938899993896484375 0.52019900083541870117 0.19920000433921813965
1 6.5743999481201171875 5.818759918212890625 3.9201800823211669922
1 3.6175899505615234375 7.3279500007629394531 4.8114099502563476562
1 5.8212099075317382812 6.8564801216125488281 2.8104200363159179688
1 8.4320201873779296875 2.3992600440979003906 6.3681402206420898438
1 1.9755599498748779297 2.3128499984741210938 2.1426301002502441406
1 2.8212199211120605469 3.2842299938201904297 8.2137603759765625
1 -0.60580301284790039062 6.6118102073669433594 4.8628301620483398438
1 6.7018799781799316406 3.1363699436187744141 3.3656499385833740234
1 -1.8438999652862548828 7.7041997909545898438 3.7405200004577636719
1 8.2095699310302734375 2.6360599994659423828 8.2874298095703125
1 1.1661200523376464844 3.2106199264526367188 2.2581400871276855469
1 6.1302399635314941406 6.2212100028991699219 9.5303497314453125
1 2.1856799125671386719 1.1013799905776977539 2.0913798809051513672
1 6.025279998779296875 2.1901099681854248047 8.7187795639038085938
1 1.5976599454879760742 1.3770099878311157227 3.8696799278259277344
1 0.36547300219535827637 4.220439910888671875 8.0709896087646484375
1 4.6490302085876464844 6.9501199722290039062 6.2732300758361816406
1 4.1553997993469238281 3.2756199836730957031 0.012280699796974658966
1 -0.3324069976806640625 8.0740604400634765625 6.7356901168823242188
1 2.1813099384307861328 2.5629599094390869141 6.7446599006652832031
1 5.2459502220153808594 4.3485898971557617188 7.2567300796508789062
1 7.43881988525390625 4.3482098579406738281 4.8540201187133789062
1 3.7502000331878662109 5.103549957275390625 6.3015599250793457031
1 1.007680058479309082 3.6030700206756591797 7.5117998123168945312
1 7.8961701393127441406 4.0945000648498535156 9.6449298858642578125
1 7.0511198043823242188 2.2067899703979492188 4.9730200767517089844
1 -1.8286700248718261719 6.5396900177001953125 0.07045249640941619873
1 6.2648801803588867188 3.4242999553680419922 9.8919095993041992188
1 6.6590099334716796875 1.8601900339126586914 5.9089999198913574219
1 6.7903499603271484375 2.069950103759765625 6.9747700691223144531
1 -0.88997000455856323242 8.3890399932861328125 8.077239990234375
1 7.2002301216125488281 7.2941198348999023438 9.2018604278564453125
1 4.7607297897338867188 1.6386699676513671875 7.2514700889587402344
1 4.7503399848937988281 5.1421499252319335938 6.7228598594665527344
1 0.77387499809265136719 4.4061598777770996094 9.0531101226806640625
1 3.3197500705718994141 6.1418600082397460938 9.2202196121215820312
1 6.044300079345703125 3.4252500534057617188 2.5872800350189208984
1 6.5325098037719726562 4.9230699539184570312 6.3817300796508789062
1 8.2449502944946289062 1.9283699989318847656 2.6383500099182128906
1 1.0385500192642211914 5.7631697654724121094 4.8123798370361328125
1 6.9725699424743652344 8.2305202484130859375 9.7121000289916992188
1 4.1848001480102539062 1.3693900108337402344 8.132450103759765625
1 6.4907498359680175781 5.0508399009704589844 3.1535899639129638672
1 2.9063599109649658203 5.7974400520324707031 6.2243299484252929688
1 7.2176198959350585938 2.1377100944519042969 2.9705801010131835938
1 3.0278100967407226562 7.4190697669982910156 1.5504200458526611328
1 8.8281803131103515625 2.9439098834991455078 7.1965498924255371094
1 9.6349496841430664062 1.4861700534820556641 9.2104997634887695312
1 1.8857500553131103516 7.5198798179626464844 5.5678501129150390625
1 8.3338804244995117188 0.92249900102615356445 2.1747999191284179688
1 5.6489300727844238281 1.7545800209045410156 1.8703800439834594727
1 5.3010802268981933594 1.1979899406433105469 1.0224000215530395508
1 4.04730987548828125 7.3658800125122070312 1.2322000265121459961
1 6.6039400100708007812 0.71362102031707763672 2.3259000778198242188
1 6.2500300407409667969 3.6767001152038574219 8.1071500778198242188
1 -0.37086099386215209961 7.2354998588562011719 0.9998080134391784668
1 -1.0696300268173217773 7.4265799522399902344 6.2293100357055664062
1 -0.53281497955322265625 7.5680499076843261719 9.3966703414916992188
1 7.0054202079772949219 0.93751698732376098633 6.3342299461364746094
1 1.9206299781799316406 6.2209000587463378906 9.1039304733276367188
1 2.5131700038909912109 2.0133600234985351562 8.403400421142578125
1 -1.3788199424743652344 5.6495699882507324219 3.2995600700378417969
1 1.5896400213241577148 3.001689910888671875 5.8695998191833496094
1 6.9803299903869628906 3.7725799083709716797 9.19268035888671875
1 6.8040599822998046875 8.374340057373046875 7.5110502243041992188
1 6.9583201408386230469 8.4585695266723632812 8.6129598617553710938
1 5.4233298301696777344 4.2877898216247558594 1.104230046272277832
1 0.83686298131942749023 5.3182301521301269531 2.9911201000213623047
1 6.895999908447265625 1.9183100461959838867 0.98483902215957641602
1 7.6774001121520996094 2.1278200149536132812 9.4817399978637695312
1 4.1368899345397949219 6.6963100433349609375 7.3089599609375
1 5.8182401657104492188 3.17378997802734375 8.9989795684814453125
1 6.013919830322265625 2.5505800247192382812 6.4026198387145996094
1 4.4324898719787597656 2.1041200160980224609 8.8513002395629882812
1 5.556079864501953125 5.3472299575805664062 1.1301399469375610352
1 6.4207901954650878906 2.9218299388885498047 0.6903820037841796875
1 4.9395499229431152344 0.18246999382972717285 1.2564400434494018555
1 3.6202399730682373047 4.7312297821044921875 2.2740700244903564453
1 2.2946999073028564453 5.5864500999450683594 3.3695700168609619141
1 2.4728798866271972656 4.7085499763488769531 8.32917022705078125
1 9.1715002059936523438 3.1041600704193115234 8.2090501785278320312
1 4.9166598320007324219 1.0586500167846679688 2.7976400852203369141
1 6.1267099380493164062 4.887310028076171875 4.2128801345825195312
1 4.5364899635314941406 8.050479888916015625 8.4023895263671875
1 7.3275299072265625 6.5276799201965332031 8.3600597381591796875
1 8.1892900466918945312 3.7221200466156005859 4.5467100143432617188
1 3.5149500370025634766 4.0403900146484375 5.505680084228515625
1 2.9369299411773681641 1.8227200508117675781 2.2643198966979980469
1 0.76351499557495117188 8.5193500518798828125 9.2455701828002929688
1 2.7513499259948730469 3.4040100574493408203 7.1031498908996582031
1 1.7421200275421142578 3.4951601028442382812 6.7942299842834472656
1 7.2524600028991699219 6.2505598068237304688 5.2334198951721191406
1 1.4165699481964111328 1.9459999799728393555 8.0825595855712890625
1 4.5524997711181640625 4.9958400726318359375 5.4284901618957519531
1 3.3529100418090820312 1.4333800077438354492 7.4917001724243164062
1 4.8507199287414550781 2.1872799396514892578 1.2781100273132324219
1 4.564060211181640625 2.6129899024963378906 3.9063899517059326172
1 7.7497801780700683594 1.6086299419403076172 6.7744898796081542969
1 -0.0051141399890184402466 7.1197199821472167969 5.6372499465942382812
1 4.1386198997497558594 4.8860998153686523438 3.9557499885559082031
1 2.0514900684356689453 3.8255200386047363281 4.1922202110290527344
1 5.1750397682189941406 3.9194400310516357422 2.9999599456787109375
1 6.2381501197814941406 3.6718199253082275391 1.5855499505996704102
1 -0.3672460019588470459 5.3642101287841796875 3.5195100307464599609
1 0.33925300836563110352 1.355460047721862793 2.7333600521087646484
1 1.2774399518966674805 3.5280599594116210938 8.505649566650390625
1 6.1272301673889160156 6.8616800308227539062 3.9057199954986572266
1 0.59266197681427001953 5.2756700515747070312 8.0772800445556640625
1 5.1300401687622070312 4.0726599693298339844 5.391880035400390625
1 3.6385200023651123047 7.1520700454711914062 8.7901096343994140625
1 1.7531900405883789062 5.046360015869140625 5.4267601966857910156
1 0.11810799688100814819 4.3023200035095214844 1.0008800029754638672
1 -1.2119200229644775391 5.3555798530578613281 1.3193500041961669922
1 4.5535001754760742188 3.6683599948883056641 1.0241999626159667969
1 6.5477700233459472656 3.9515600204467773438 4.4390897750854492188
1 5.1924200057983398438 4.7800297737121582031 8.97122955322265625
1 6.0452399253845214844 1.4089599847793579102 6.6785898208618164062
1 -0.6007429957389831543 2.6151399612426757812 1.0026899576187133789
1 2.7509799003601074219 5.6163301467895507812 5.1812701225280761719
1 0.46257001161575317383 6.7089600563049316406 4.6432299613952636719
1 4.4932498931884765625 3.7285599708557128906 3.785739898681640625
1 4.6557598114013671875 6.0074000358581542969 7.9756999015808105469
1 4.3241600990295410156 6.3822298049926757812 9.0184202194213867188
1 0.39454001188278198242 6.1523599624633789062 3.6705799102783203125
1 1.8701599836349487305 0.78424698114395141602 4.7040600776672363281
1 3.2360699176788330078 4.1133399009704589844 8.7652101516723632812
1 2.0530400276184082031 3.3505098819732666016 0.20818600058555603027
1 7.5171098709106445312 1.1225099563598632812 2.8510100841522216797
1 2.5520999431610107422 4.6062102317810058594 3.6573200225830078125
1 5.2415299415588378906 3.7928600311279296875 9.6567897796630859375
1 5.9487299919128417969 1.3814300298690795898 2.8028700351715087891
1 -0.5400059819221496582 2.8658199310302734375 2.1357100009918212891
1 3.8815701007843017578 6.1984300613403320312 6.441120147705078125
1 1.5789799690246582031 8.257129669189453125 6.6394801139831542969
1 7.8402500152587890625 0.6370220184326171875 4.5390000343322753906
1 2.2944800853729248047 1.2766400575637817383 0.47944501042366027832
1 3.769229888916015625 5.7635898590087890625 5.487110137939453125
1 4.1147799491882324219 6.5606799125671386719 1.8988499641418457031
1 6.48863983154296875 2.6678700447082519531 7.8911800384521484375
1 1.9370000362396240234 4.0875501632690429688 0.95829498767852783203
1 5.2438101768493652344 5.2297701835632324219 2.3983800411224365234
1 6.32324981689453125 2.8925299644470214844 4.3550601005554199219
1 1.5283800363540649414 6.9330801963806152344 0.31901499629020690918
1 -2.9910900592803955078 7.4503998756408691406 1.2352199554443359375
1 5.0852198600769042969 3.6094400882720947266 6.464839935302734375
1 3.9865200519561767578 0.48971799015998840332 0.95459401607513427734
1 4.54055023193359375 7.0279297828674316406 8.2129201889038085938
1 -0.058208599686622619629 4.7615599632263183594 2.6769399642944335938
1 5.4803400039672851562 7.5042099952697753906 8.3150997161865234375
1 -0.22899800539016723633 6.1961498260498046875 0.78566402196884155273
1 2.4478299617767333984 7.0723900794982910156 7.2322301864624023438
1 -0.41411298513412475586 5.6236300468444824219 7.8694300651550292969
1 7.9078698158264160156 3.4150900840759277344 6.8853998184204101562
1 0.42513298988342285156 5.0088000297546386719 5.2210597991943359375
1 1.2026200294494628906 1.6818000078201293945 0.26010400056838989258
1 1.3755799531936645508 4.5685400962829589844 8.1891202926635742188
1 1.4650700092315673828 6.5686998367309570312 7.7667298316955566406
1 -0.40402498841285705566 4.3702001571655273438 5.4001598358154296875
1 4.6213197708129882812 4.6206798553466796875 1.7724699974060058594
1 -1.1802599430084228516 6.5201501846313476562 1.0833899974822998047
1 7.8419899940490722656 3.1385700702667236328 9.1798000335693359375
1 3.5129299163818359375 3.4998500347137451172 1.0187599658966064453
1 2.5613799095153808594 4.5824599266052246094 4.7996997833251953125
1 3.2264499664306640625 1.0687899589538574219 1.4275799989700317383
1 3.8495099544525146484 4.2398900985717773438 0.28198799490928649902
1 3.1398899555206298828 4.2146501541137695312 7.6495699882507324219
1 -0.79300397634506225586 5.4844799041748046875 5.2547001838684082031
1 0.84599000215530395508 3.7239999771118164062 5.4570097923278808594
1 6.324810028076171875 6.7676601409912109375 8.6533002853393554688
1 0.61195099353790283203 4.8240499496459960938 1.8021199703216552734
1 5.4837999343872070312 5.7091698646545410156 8.514739990234375
1 -0.041390500962734222412 6.9339599609375 8.546489715576171875
1 3.1737198829650878906 7.2299098968505859375 2.8534200191497802734
1 3.2064900398254394531 7.9619898796081542969 9.3408498764038085938
1 2.0672900676727294922 5.1663498878479003906 0.73801797628402709961
1 6.10791015625 3.6066300868988037109 6.2454500198364257812
1 1.3999799489974975586 0.92649698257446289062 2.9083299636840820312
1 2.1670999526977539062 0.20802800357341766357 0.238931998610496521
1 5.4034199714660644531 2.8538799285888671875 8.1173696517944335938
1 6.7609400749206542969 3.0093200206756591797 5.6488800048828125
1 4.1784200668334960938 8.4536895751953125 9.379119873046875
1 4.0655498504638671875 3.3049199581146240234 6.5967202186584472656
1 2.7745699882507324219 4.7556400299072265625 5.8528699874877929688
1 0.57762998342514038086 7.4893097877502441406 1.9624700546264648438
1 4.68527984619140625 1.5814900398254394531 4.2391600608825683594
1 7.3614602088928222656 5.8497800827026367188 7.5483298301696777344
1 3.843379974365234375 3.2085900306701660156 4.5253200531005859375
1 5.1931200027465820312 3.8886699676513671875 8.38813018798828125
1 4.0364398956298828125 7.6633200645446777344 3.5468599796295166016
1 4.031330108642578125 7.56826019287109375 2.3115699291229248047
1 5.4084801673889160156 4.8485798835754394531 3.4422099590301513672
1 0.21596300601959228516 1.2994199991226196289 0.50262999534606933594
1 7.2489500045776367188 6.489990234375 9.9253797531127929688
1 5.63134002685546875 5.5073499679565429688 7.4388499259948730469
1 0.15138299763202667236 2.3535399436950683594 3.3782401084899902344
1 1.1535300016403198242 0.69720798730850219727 0.63292801380157470703
1 2.6923298835754394531 4.3510999679565429688 2.5994501113891601562
1 7.2354998588562011719 1.3258099555969238281 0.08224020153284072876
1 4.7209801673889160156 3.4772000312805175781 7.5040302276611328125
1 6.0345301628112792969 4.1812000274658203125 9.0558300018310546875
1 3.0248000621795654297 2.7507801055908203125 1.7343599796295166016
1 4.2594799995422363281 3.8321700096130371094 2.3848900794982910156
1 3.3473498821258544922 6.7368898391723632812 5.688739776611328125
1 5.1212801933288574219 6.6023001670837402344 3.5639801025390625
1 5.24806976318359375 6.5968899726867675781 4.6878499984741210938
1 2.9604499340057373047 7.7550201416015625 5.5213899612426757812
1 1.9040199518203735352 6.0114598274230957031 2.3978199958801269531
1 0.081179998815059661865 3.3491001129150390625 2.9037001132965087891
1 5.1580400466918945312 5.7226200103759765625 9.5099496841430664062
1 3.3848400115966796875 5.1481800079345703125 3.2300798892974853516
1 0.92181402444839477539 6.4713501930236816406 8.7289104461669921875
1 3.0309000015258789062 5.4002900123596191406 4.1782097816467285156
1 -1.0915199518203735352 4.6567602157592773438 3.0744500160217285156
1 -0.22344699501991271973 5.2714600563049316406 6.0946202278137207031
1 1.1028200387954711914 2.3733999729156494141 1.4650900363922119141
1 -0.10624299943447113037 1.8977400064468383789 1.6206400394439697266
1 1.0797200202941894531 4.5671401023864746094 7.0981497764587402344
1 8.6400299072265625 3.4514000415802001953 9.9483003616333007812
1 0.1739269942045211792 3.2481000423431396484 3.9686501026153564453
1 6.7981200218200683594 3.1913499832153320312 7.0305199623107910156
1 6.2268199920654296875 1.5562200546264648438 4.689060211181640625
1 7.2508897781372070312 3.0529799461364746094 1.3173199892044067383
1 4.912139892578125 2.6452500820159912109 6.8627901077270507812
1 0.63894599676132202148 7.6790599822998046875 6.2780699729919433594
1 0.37559199333190917969 6.1355900764465332031 6.6166901588439941406
1 2.7427198886871337891 3.794219970703125 1.6359299421310424805
1 -0.18742400407791137695 5.5230197906494140625 1.6545900106430053711
1 6.2645502090454101562 4.1614298820495605469 7.1388602256774902344
1 5.1022100448608398438 1.8376200199127197266 5.1843700408935546875
1 7.4475398063659667969 4.7859601974487304688 5.8096699714660644531
1 2.4255499839782714844 6.7313399314880371094 6.1951799392700195312
1 3.9661500453948974609 0.47819399833679199219 3.0225100517272949219
1 8.409210205078125 0.66231399774551391602 1.1486699581146240234
1 0.79963701963424682617 5.8534998893737792969 1.9680299758911132812
1 3.3531301021575927734 4.1046700477600097656 6.5548801422119140625
1 7.2720999717712402344 3.2467401027679443359 4.7420401573181152344
1 2.5645101070404052734 0.93126398324966430664 3.7619199752807617188
1 5.4964098930358886719 6.3807001113891601562 1.4431799650192260742
1 2.4628500938415527344 5.8585901260375976562 1.4575799703598022461
1 -0.95159298181533813477 8.5023202896118164062 9.1517696380615234375
1 -0.59719300270080566406 6.4331498146057128906 3.7043700218200683594
1 3.1687800884246826172 7.0431499481201171875 3.8868899345397949219
1 7.2730398178100585938 4.0831699371337890625 7.5688300132751464844
1 5.8897099494934082031 7.7916798591613769531 3.3608698844909667969
1 6.9896697998046875 4.995639801025390625 2.2233099937438964844
1 2.5122399330139160156 7.7816700935363769531 6.4562101364135742188
1 4.4590201377868652344 3.1660299301147460938 8.6994304656982421875
1 7.9934201240539550781 1.7436900138854980469 4.7514700889587402344
1 -1.3763200044631958008 7.1100101470947265625 1.9396599531173706055
1 0.51980799436569213867 5.075550079345703125 0.0044392501004040241241
1 0.99720799922943115234 6.4063100814819335938 2.844409942626953125
1 7.1703500747680664062 4.83123016357421875 3.9626700878143310547
1 1.0212299823760986328 2.5841400623321533203 7.2784399986267089844
1 -1.0607600212097167969 4.3825201988220214844 0.76779597997665405273
1 5.9561100006103515625 8.4329204559326171875 8.227939605712890625
1 6.1944799423217773438 2.4106800556182861328 2.7471098899841308594
1 3.2087600231170654297 6.5022997856140136719 0.9913470149040222168
1 7.3347902297973632812 5.74748992919921875 6.187419891357421875
1 1.1853100061416625977 1.601920008659362793 2.1689300537109375
1 2.457469940185546875 1.9931299686431884766 3.9601500034332275391
1 -0.65250200033187866211 4.5871000289916992188 1.7833100557327270508
1 5.5825200080871582031 3.0742599964141845703 3.5508100986480712891
1 0.72555398941040039062 7.0475301742553710938 7.1347799301147460938
1 2.5602500438690185547 1.8859800100326538086 1.3039499521255493164
1 6.786930084228515625 4.5549302101135253906 8.4203996658325195312
1 -0.84805697202682495117 3.7956900596618652344 2.5284900665283203125
1 0.11197700351476669312 3.9025599956512451172 2.0318799018859863281
1 0.6866009831428527832 8.1241397857666015625 7.2761797904968261719
1 4.96240997314453125 7.2259798049926757812 1.8657699823379516602
1 0.16666500270366668701 5.1169400215148925781 7.0731501579284667969
1 9.5687303543090820312 3.4242100715637207031 9.4142303466796875
1 4.9634799957275390625 6.1824097633361816406 6.9551401138305664062
1 3.7472898960113525391 2.4236099720001220703 2.5827200412750244141
1 1.0278600454330444336 7.6290998458862304688 4.8045601844787597656
1 3.0700199604034423828 6.2285399436950683594 3.1315000057220458984
1 8.1651096343994140625 4.3358798027038574219 6.4425601959228515625
1 1.6023800373077392578 7.6083598136901855469 7.5436801910400390625
1 8.801910400390625 2.7036299705505371094 9.1523103713989257812
1 1.4050199985504150391 5.961460113525390625 3.7805600166320800781
1 7.3925900459289550781 2.6335101127624511719 0.33500200510025024414
1 4.3344697952270507812 6.6455998420715332031 5.268199920654296875
1 7.0540499687194824219 5.854000091552734375 9.1169595718383789062
1 0.7957699894905090332 4.0919699668884277344 3.6709699630737304688
1 0.55637097358703613281 1.0975899696350097656 1.4884799718856811523
1 0.91383898258209228516 5.3075299263000488281 6.1590299606323242188
1 7.418399810791015625 2.6450400352478027344 6.3478198051452636719
1 0.0026576600503176450729 6.9543099403381347656 2.7735199928283691406
1 0.63183397054672241211 6.1972298622131347656 0.14144000411033630371
1 3.6351799964904785156 6.9368200302124023438 9.8805904388427734375
1 4.3598399162292480469 4.2675099372863769531 6.1572198867797851562
1 4.0373301506042480469 1.3642200231552124023 6.4184498786926269531
1 1.4801000356674194336 1.8128099441528320312 6.7277998924255371094
1 5.6400599479675292969 1.0836100578308105469 7.5969500541687011719
1 5.4162201881408691406 7.4368600845336914062 9.8581399917602539062
1 4.8835902214050292969 4.20207977294921875 0.14586000144481658936
1 5.056529998779296875 2.6341400146484375 9.5180997848510742188
1 8.698780059814453125 1.7865099906921386719 9.6233701705932617188
1 6.0823497772216796875 7.2649102210998535156 5.2505202293395996094
1 4.4625301361083984375 4.7406802177429199219 2.9175000190734863281
1 -0.025505300611257553101 7.6975197792053222656 4.7365298271179199219
1 0.3928680121898651123 4.3843898773193359375 6.1548600196838378906
1 3.1319200992584228516 0.65507102012634277344 0.35186800360679626465
1 5.2028498649597167969 2.8199999332427978516 5.7714800834655761719
1 6.5349597930908203125 1.6066800355911254883 7.8751702308654785156
1 5.9993600845336914062 2.3857400417327880859 5.2674398422241210938
1 0.19122399389743804932 6.7330098152160644531 9.56381988525390625
1 2.3482499122619628906 4.3314800262451171875 6.7395200729370117188
1 4.9858598709106445312 2.7202000617980957031 0.31644201278686523438
1 -0.88541001081466674805 5.4359297752380371094 2.4013500213623046875
1 0.950531005859375 5.4652400016784667969 9.0577297210693359375
1 7.2206997871398925781 4.0663599967956542969 1.7126699686050415039
1 1.7878500223159790039 7.0426001548767089844 9.7639799118041992188
1 2.8550100326538085938 4.4150700569152832031 0.58478701114654541016
1 6.6833100318908691406 4.099269866943359375 5.5270900726318359375
1 2.9523599147796630859 0.86206901073455810547 2.7898299694061279297
1 1.4589099884033203125 4.3070101737976074219 6.144229888916015625
1 3.5973300933837890625 5.0097498893737792969 8.2060499191284179688
1 4.3077402114868164062 4.1389398574829101562 4.75222015380859375
1 3.3723199367523193359 0.78275400400161743164 5.6969900131225585938
1 0.45106801390647888184 7.3015298843383789062 0.045889299362897872925
1 7.2708401679992675781 2.1477799415588378906 8.452610015869140625
1 2.5231499671936035156 3.34375 9.6582498550415039062
1 5.4187998771667480469 5.655059814453125 5.1850900650024414062
1 3.22920989990234375 1.7146600484848022461 3.2866098880767822266
1 2.1795699596405029297 1.6655800342559814453 2.9971499443054199219
1 2.7639000415802001953 5.6144499778747558594 7.9545102119445800781
1 6.7595701217651367188 7.4432802200317382812 6.7494401931762695312
1 1.088209986686706543 6.2113699913024902344 9.8004302978515625
1 2.8076601028442382812 5.4488000869750976562 2.4094901084899902344
1 1.301959991455078125 4.5051198005676269531 4.6448497772216796875
1 -0.46520501375198364258 7.6017298698425292969 2.0095798969268798828
1 4.7262501716613769531 5.8991298675537109375 5.9343099594116210938
1 4.0272397994995117188 7.6186099052429199219 5.7237000465393066406
1 6.1809902191162109375 5.2255301475524902344 9.150279998779296875
1 1.0370500087738037109 6.8437800407409667969 5.6126999855041503906
1 -2.8405900001525878906 6.7355098724365234375 0.42775800824165344238
1 8.0389299392700195312 1.8735899925231933594 3.6792099475860595703
1 7.4553799629211425781 3.7973499298095703125 3.7525899410247802734
1 -0.025777600705623626709 3.369770050048828125 0.50958102941513061523
1 1.8820699453353881836 6.1237201690673828125 5.4716801643371582031
1 0.55140602588653564453 5.0801601409912109375 4.0533699989318847656
1 6.2236599922180175781 7.7782201766967773438 9.0617704391479492188
1 6.8851399421691894531 5.2558398246765136719 4.9128298759460449219
1 6.332550048828125 2.6094400882720947266 1.703950047492980957
1 8.014980316162109375 5.4151301383972167969 9.3755998611450195312
1 1.0019099712371826172 2.4717199802398681641 5.1737198829650878906
1 4.5411000251770019531 5.0384202003479003906 0.77665102481842041016
1 -0.35495901107788085938 6.5466299057006835938 1.8302199840545654297
1 1.9949500560760498047 5.0113301277160644531 7.4470500946044921875
1 4.1904001235961914062 6.2107000350952148438 0.87217599153518676758
1 6.0163297653198242188 1.1663700342178344727 8.65077972412109375
1 2.5992600917816162109 4.4651198387145996094 9.6246900558471679688
1 7.1161699295043945312 4.0461797714233398438 6.5094699859619140625
1 3.2848300933837890625 1.7453299760818481445 0.48472899198532104492
1 -0.95451402664184570312 7.5783300399780273438 5.2260799407958984375
1 6.6385297775268554688 0.8330720067024230957 3.4106600284576416016
1 5.1602501869201660156 1.8335000276565551758 6.2422199249267578125
1 1.9704500436782836914 5.288330078125 6.4220800399780273438
1 4.0590000152587890625 5.7395000457763671875 9.9118900299072265625
1 6.7247500419616699219 1.7192699909210205078 2.1151099205017089844
1 1.7990499734878540039 4.1621098518371582031 2.0097699165344238281
1 1.4942200183868408203 8.1785402297973632812 8.4869098663330078125
1 4.1237301826477050781 4.4202098846435546875 7.2037100791931152344
1 2.0799500942230224609 7.4049201011657714844 4.0762500762939453125
1 1.8455599546432495117 2.3708200454711914062 0.70590198040008544922