666
Atoms. Timestep: 70000
1 3.4502799510955810547 1.3314499855041503906 0.67268002033233642578
1 4.5077600479125976562 7.3384900093078613281 6.1762700080871582031
1 1.8138600587844848633 7.0709400177001953125 7.6644001007080078125
1 2.3484199047088623047 3.3083200454711914062 3.6838600635528564453
1 0.80126297473907470703 2.8291800022125244141 2.6928300857543945312
1 -0.96132498979568481445 3.3357300758361816406 0.83429098129272460938
1 7.6666398048400878906 1.6019300222396850586 8.4763803482055664062
1 0.1594959944486618042 7.6820697784423828125 6.5460901260375976562
1 7.1896600723266601562 3.6662900447845458984 8.675140380859375
1 7.1959099769592285156 7.295780181884765625 7.5003800392150878906
1 -1.1646699905395507812 8.3627300262451171875 9.1894903182983398438
1 5.4906601905822753906 6.8055400848388671875 3.4371900558471679688
1 1.7217700481414794922 2.5396699905395507812 2.9655699729919433594
1 0.67483699321746826172 2.3137500286102294922 0.39904600381851196289
1 2.1496999263763427734 3.6168699264526367188 5.80792999267578125
1 0.035173900425434112549 5.8799600601196289062 1.9919099807739257812
1 2.9264400005340576172 3.8963398933410644531 9.3599700927734375
1 4.494110107421875 6.9430499076843261719 8.0352697372436523438
1 6.3941102027893066406 6.1305398941040039062 2.7682199478149414062
1 0.76879000663757324219 8.341400146484375 7.1604900360107421875
1 0.64982199668884277344 2.3874900341033935547 6.5390801429748535156
1 5.7073597908020019531 5.4704198837280273438 2.1156699657440185547
1 3.6544001102447509766 7.270709991455078125 2.4702899456024169922
1 1.1615200042724609375 5.6643300056457519531 3.6367299556732177734
1 1.9123200178146362305 6.2510199546813964844 9.3904600143432617188
1 5.8542799949645996094 2.6337099075317382812 4.8835802078247070312
1 7.1588001251220703125 5.9804301261901855469 6.3453798294067382812
1 5.0253200531005859375 5.5883002281188964844 0.53279799222946166992
1 -0.66067802906036376953 5.1429500579833984375 1.5299999713897705078
1 7.6839900016784667969 2.3275499343872070312 7.6011700630187988281
1 1.4705599546432495117 3.1187500953674316406 0.038597099483013153076
1 5.8002901077270507812 4.3440399169921875 1.8681199550628662109
1 7.6953802108764648438 2.5113899707794189453 2.6509599685668945312
1 6.4603700637817382812 3.2860200405120849609 4.2630801200866699219
1 5.4684400558471679688 5.8411197662353515625 5.2310800552368164062
1 9.5200901031494140625 1.7762000560760498047 8.5356998443603515625
1 2.8943800926208496094 5.9822201728820800781 4.8482599258422851562
1 5.12162017822265625 0.43305799365043640137 0.63510602712631225586
1 8.1297998428344726562 5.3262300491333007812 9.787139892578125
1 1.5532499551773071289 3.2794299125671386719 1.0671399831771850586
1 -2.1354498863220214844 6.0215702056884765625 1.8033599853515625
1 2.1668300628662109375 3.5848100185394287109 7.0452299118041992188
1 4.9793300628662109375 4.8649501800537109375 1.4607199430465698242
1 5.0505499839782714844 3.1378300189971923828 5.2769598960876464844
1 8.6448497772216796875 1.2001199722290039062 8.9328403472900390625
1 7.5830898284912109375 4.0577502250671386719 4.800640106201171875
1 0.52693802118301391602 3.4026000499725341797 6.92082977294921875
1 1.0812200307846069336 5.9852700233459472656 6.069499969482421875
1 2.2113699913024902344 3.2361199855804443359 4.6874499320983886719
1 -1.7279000282287597656 7.1881499290466308594 4.5278100967407226562
1 0.92755997180938720703 7.8229799270629882812 4.1846699714660644531
1 6.2790398597717285156 6.3710398674011230469 9.899539947509765625
1 5.2720999717712402344 7.9050202369689941406 6.7383899688720703125
1 2.4743299484252929688 2.900360107421875 0.51864701509475708008
1 0.24871300160884857178 0.82598000764846801758 1.8234499692916870117
1 7.3535599708557128906 2.6502199172973632812 9.6975698471069335938
1 6.1402797698974609375 7.6022701263427734375 6.2833499908447265625
1 8.0271997451782226562 2.7853701114654541016 3.7133700847625732422
1 1.4380400180816650391 1.8642599582672119141 5.8266000747680664062
1 6.5138797760009765625 5.2197098731994628906 3.52845001220703125
1 1.2945599555969238281 3.9413700103759765625 6.3538999557495117188
1 8.2843198776245117188 2.1809599399566650391 9.1241102218627929688
1 9.283390045166015625 1.9685699939727783203 9.5150299072265625
1 2.3342499732971191406 4.1399202346801757812 2.0978500843048095703
1 4.7741899490356445312 2.9394299983978271484 9.3303098678588867188
1 6.2300801277160644531 0.4994849860668182373 2.1919701099395751953
1 2.8623499870300292969 4.1673398017883300781 5.3667597770690917969
1 3.4152998924255371094 0.98582297563552856445 4.6946702003479003906
1 -0.35292199254035949707 8.1659297943115234375 9.839389801025390625
1 3.2187600135803222656 3.6523799896240234375 1.9332499504089355469
1 1.6686999797821044922 0.63467299938201904297 3.6345200538635253906
1 0.67429500818252563477 3.9825599193572998047 2.7538499832153320312
1 3.1775100231170654297 8.4450702667236328125 9.8715600967407226562
1 0.24169999361038208008 5.3031201362609863281 5.2550401687622070312
1 4.3246798515319824219 0.91166901588439941406 0.98704797029495239258
1 6.3988900184631347656 5.5095200538635253906 4.5942101478576660156
1 0.29452699422836303711 6.6268000602722167969 6.4412698745727539062
1 4.86923980712890625 5.0084900856018066406 2.4379498958587646484
1 6.9338898658752441406 1.3368400335311889648 5.9359002113342285156
1 5.3306097984313964844 7.5152001380920410156 2.5839300155639648438
1 3.2200500965118408203 2.7125298976898193359 8.2174396514892578125
1 2.6474599838256835938 1.9166699647903442383 1.4465600252151489258
1 -0.28192299604415893555 2.3536899089813232422 0.70924097299575805664
1 2.5547099113464355469 1.4776799678802490234 4.362979888916015625
1 4.8878397941589355469 4.2346100807189941406 4.4361600875854492188
1 6.4110698699951171875 6.5843000411987304688 4.9635000228881835938
1 6.7299599647521972656 1.9236899614334106445 8.0093698501586914062
1 3.1870200634002685547 4.6540899276733398438 1.5420600175857543945
1 5.8960499763488769531 5.0199899673461914062 0.06788539886474609375
1 0.79007297754287719727 7.3114500045776367188 1.0626100301742553711
1 5.5605401992797851562 3.9934101104736328125 7.9469499588012695312
1 1.957550048828125 2.1437299251556396484 4.8160099983215332031
1 8.550510406494140625 2.7741200923919677734 6.2398500442504882812
1 5.9558200836181640625 8.1281099319458007812 8.505359649658203125
1 6.2815999984741210938 4.0564999580383300781 9.5502004623413085938
1 4.327320098876953125 1.8866100311279296875 7.6087198257446289062
1 3.3246500492095947266 2.1641399860382080078 7.2686400413513183594
1 5.7012701034545898438 3.1294500827789306641 6.8231601715087890625
1 5.8242602348327636719 4.69029998779296875 4.0448398590087890625
1 3.8756999969482421875 4.8452100753784179688 6.0762600898742675781
1 8.2677698135375976562 3.8215200901031494141 7.3465800285339355469
1 4.2595400810241699219 3.0598599910736083984 0.6345310211181640625
1 7.7555999755859375 1.9275799989700317383 4.36660003662109375
1 -2.4296000003814697266 6.8058500289916992188 0.88315999507904052734
1 4.9025897979736328125 1.7588100433349609375 8.945159912109375
1 4.155879974365234375 3.5116100311279296875 4.7998900413513183594
1 3.2987000942230224609 3.1898899078369140625 7.2806401252746582031
1 -0.059558000415563583374 7.8876700401306152344 8.80702972412109375
1 6.9275298118591308594 7.4695401191711425781 8.5206203460693359375
1 4.2596797943115234375 2.6339099407196044922 5.5953497886657714844
1 2.6254999637603759766 7.3585200309753417969 6.1742401123046875
1 0.82059299945831298828 4.6068401336669921875 9.4638996124267578125
1 2.9117000102996826172 4.6536798477172851562 8.4476995468139648438
1 6.8620200157165527344 2.2575700283050537109 3.9646399021148681641
1 7.1674299240112304688 5.090740203857421875 5.0999798774719238281
1 0.76513600349426269531 1.6846100091934204102 1.196040034294128418
1 7.3840699195861816406 4.9222898483276367188 4.1076397895812988281
1 -3.4411499500274658203 7.4092798233032226562 0.14098399877548217773
1 1.5272400379180908203 8.294170379638671875 9.7626104354858398438
1 -0.89745998382568359375 3.4638299942016601562 1.8866300582885742188
1 3.6501100063323974609 7.6842198371887207031 5.7312898635864257812
1 7.7958498001098632812 0.68892300128936767578 3.2571198940277099609
1 3.7682299613952636719 6.2925000190734863281 2.2385001182556152344
1 7.6649799346923828125 2.9820699691772460938 5.6806001663208007812
1 5.0543799400329589844 8.7414598464965820312 9.9367399215698242188
1 6.3579301834106445312 0.67070502042770385742 5.3610200881958007812
1 -0.13673399388790130615 1.8386399745941162109 1.6393500566482543945
1 4.566539764404296875 6.8595900535583496094 1.9282300472259521484
1 6.6726899147033691406 1.9367699623107910156 9.0343904495239257812
1 4.1359200477600097656 6.0889601707458496094 0.15878400206565856934
1 6.1274900436401367188 1.1884299516677856445 1.2542999982833862305
1 7.399169921875 5.5266199111938476562 8.24192047119140625
1 5.8279299736022949219 1.4299700260162353516 9.44281005859375
1 5.3914399147033691406 7.7349901199340820312 4.6729898452758789062
1 7.0563998222351074219 7.7062602043151855469 9.7261400222778320312
1 7.8221697807312011719 2.1021199226379394531 6.57666015625
1 0.8353099822998046875 5.5817198753356933594 9.7106599807739257812
1 9.4808597564697265625 2.5249600410461425781 7.7400898933410644531
1 5.3237600326538085938 7.795619964599609375 3.6119201183319091797
1 1.2934700250625610352 2.8226900100708007812 5.2335801124572753906
1 5.2198400497436523438 1.5951999425888061523 7.913829803466796875
1 6.2453999519348144531 5.5023198127746582031 6.6739401817321777344
1 7.4479098320007324219 6.3954501152038574219 7.2141599655151367188
1 5.1065201759338378906 2.5105299949645996094 0.95001101493835449219
1 -1.475149989128112793 5.9597802162170410156 4.3699798583984375
1 3.4754099845886230469 7.4735498428344726562 3.5659000873565673828
1 6.4737901687622070312 2.1999399662017822266 9.9534502029418945312
1 2.5613200664520263672 7.6175398826599121094 7.1912798881530761719
1 7.16996002197265625 4.4234499931335449219 8.0536899566650390625
1 2.9769101142883300781 4.1485600471496582031 7.483860015869140625
1 3.2784600257873535156 1.5717200040817260742 9.0113496780395507812
1 5.9212498664855957031 4.1508998870849609375 0.86418998241424560547
1 2.6397500038146972656 7.008029937744140625 3.9217998981475830078
1 2.8267800807952880859 5.9037199020385742188 2.6566100120544433594
1 2.1978900432586669922 4.1653699874877929688 3.1814699172973632812
1 2.7623600959777832031 5.9120001792907714844 3.7617199420928955078
1 2.1329998970031738281 4.0349798202514648438 7.9025797843933105469
1 7.4036197662353515625 4.7503800392150878906 9.0670099258422851562
1 7.781169891357421875 1.5137799978256225586 2.2279400825500488281
1 6.3212599754333496094 5.53050994873046875 5.6483798027038574219
1 5.2430200576782226562 8.1090602874755859375 7.6920099258422851562
1 4.3914098739624023438 7.7020401954650878906 7.2643499374389648438
1 0.51208800077438354492 4.13957977294921875 4.857669830322265625
1 4.7364602088928222656 6.0648698806762695312 2.7237699031829833984
1 0.96036100387573242188 0.4722639918327331543 0.014208300039172172546
1 -1.3246500492095947266 5.3857798576354980469 0.26557001471519470215
1 7.1370301246643066406 2.5943200588226318359 0.19079400599002838135
1 1.5040899515151977539 2.9032399654388427734 7.2881498336791992188
1 3.3481400012969970703 1.1179699897766113281 6.9023299217224121094
1 9.0404996871948242188 3.5740599632263183594 8.0097398757934570312
1 4.7047100067138671875 4.4827699661254882812 6.5207500457763671875
1 0.094457797706127166748 7.7228999137878417969 7.5902099609375
1 4.7679901123046875 4.5041399002075195312 0.55401301383972167969
1 5.8387598991394042969 3.4422900676727294922 2.875659942626953125
1 1.5533499717712402344 7.9716801643371582031 7.7213301658630371094
1 0.073016002774238586426 7.3159098625183105469 5.5898699760437011719
1 4.7741398811340332031 5.8180298805236816406 1.7479799985885620117
1 0.41950199007987976074 4.0524501800537109375 3.7890000343322753906
1 7.0849099159240722656 3.0325601100921630859 3.3085498809814453125
1 5.9371199607849121094 3.393280029296875 1.7938400506973266602
1 0.29888200759887695312 7.1118798255920410156 2.319580078125
1 0.086443603038787841797 7.0330700874328613281 3.3244800567626953125
1 1.2379699945449829102 3.3250000476837158203 8.322540283203125
1 0.82482802867889404297 1.3072199821472167969 5.1368198394775390625
1 7.7132701873779296875 3.0808200836181640625 6.7544598579406738281
1 5.6875500679016113281 4.8143901824951171875 5.0794200897216796875
1 3.6394999027252197266 6.4134497642517089844 9.6372699737548828125
1 1.3864200115203857422 4.0533800125122070312 5.3397498130798339844
1 -0.006112889852374792099 6.0234498977661132812 9.4243803024291992188
1 -0.24528099596500396729 4.2671599388122558594 1.3334900140762329102
1 2.4832999706268310547 2.9974501132965087891 1.5809799432754516602
1 -0.38445699214935302734 3.5431599617004394531 4.2078499794006347656
1 4.4004697799682617188 6.9715299606323242188 8.9991903305053710938
1 4.145420074462890625 1.5751800537109375 5.4226899147033691406
1 1.5453399419784545898 3.5580000877380371094 2.3380599021911621094
1 2.0525600910186767578 6.3105998039245605469 4.3262701034545898438
1 1.537449955940246582 1.482689976692199707 2.9514698982238769531
1 5.5522098541259765625 3.7637400627136230469 3.8420801162719726562
1 6.1875200271606445312 7.7140398025512695312 7.2543201446533203125
1 2.4628300666809082031 5.7908902168273925781 0.042643599212169647217
1 3.5007300376892089844 1.7841800451278686523 3.9693000316619873047
1 -2.4841799736022949219 7.282649993896484375 2.9444899559020996094
1 4.6536002159118652344 3.2752299308776855469 6.2990298271179199219
1 4.8491201400756835938 3.6523699760437011719 7.2608699798583984375
1 6.9188299179077148438 1.0408899784088134766 3.8455700874328613281
1 4.6010699272155761719 5.1854600906372070312 3.5280098915100097656
1 5.52902984619140625 3.5690500736236572266 9.9692897796630859375
1 5.2834200859069824219 0.93499898910522460938 3.8552799224853515625
1 7.6025400161743164062 1.7586100101470947266 3.3891899585723876953
1 3.4624500274658203125 8.0050601959228515625 6.7132802009582519531
1 1.6438100337982177734 7.8674798011779785156 6.69441986083984375
1 6.3814997673034667969 1.6138399839401245117 4.56884002685546875
1 4.7990398406982421875 1.940899968147277832 9.9690599441528320312
1 6.5145602226257324219 4.4779901504516601562 6.5460200309753417969
1 7.008190155029296875 6.761280059814453125 9.4221401214599609375
1 6.3280000686645507812 4.0448598861694335938 8.5771398544311523438
1 3.2821900844573974609 4.4153900146484375 0.18279500305652618408
1 6.544879913330078125 4.0377101898193359375 3.4742000102996826172
1 6.9873600006103515625 2.3132700920104980469 6.1183300018310546875
1 3.0001499652862548828 6.5800099372863769531 0.75757402181625366211
1 6.045780181884765625 5.1570200920104980469 1.2058700323104858398
1 4.6601901054382324219 4.5351700782775878906 7.7813401222229003906
1 4.5008797645568847656 7.8949799537658691406 9.2330999374389648438
1 8.578189849853515625 2.0837199687957763672 8.0803499221801757812
1 -0.72640299797058105469 6.5620298385620117188 3.7951700687408447266
1 5.3838200569152832031 7.1327800750732421875 7.5293698310852050781
1 -0.85443997383117675781 7.3635001182556152344 2.0418400764465332031
1 1.8062100410461425781 6.1635799407958984375 8.3427095413208007812
1 1.2705800533294677734 5.2817301750183105469 7.7394399642944335938
1 5.1131300926208496094 2.8341200351715087891 8.0571498870849609375
1 8.5583095550537109375 3.8074300289154052734 6.3672499656677246094
1 2.010540008544921875 3.3614799976348876953 9.79878997802734375
1 1.1860100030899047852 4.0075597763061523438 7.4192900657653808594
1 0.037852700799703598022 7.1218500137329101562 9.6302099227905273438
1 8.1893596649169921875 4.9045400619506835938 7.6570401191711425781
1 4.3151798248291015625 2.0371201038360595703 0.30531299114227294922
1 -1.1154500246047973633 4.4954199790954589844 0.8115050196647644043
1 7.1745500564575195312 3.7857298851013183594 9.746700286865234375
1 1.6703699827194213867 4.2923998832702636719 0.34025999903678894043
1 1.0507400035858154297 6.7336301803588867188 3.9103899002075195312
1 1.764310002326965332 6.9534897804260253906 1.2685500383377075195
1 6.3200597763061523438 6.0872101783752441406 8.8520402908325195312
1 3.5311999320983886719 7.3219499588012695312 8.43350982666015625
1 6.5462698936462402344 4.294429779052734375 5.5396299362182617188
1 0.45642000436782836914 5.3097100257873535156 4.1363000869750976562
1 5.4234299659729003906 7.8254599571228027344 9.7102098464965820312
1 0.32013601064682006836 5.7656102180480957031 1.0581200122833251953
1 5.5764899253845214844 5.5331101417541503906 9.134059906005859375
1 0.81864202022552490234 6.5387902259826660156 9.1802396774291992188
1 2.1584999561309814453 4.3527898788452148438 4.4524598121643066406
1 0.64953398704528808594 5.49748992919921875 0.037686500698328018188
1 4.4780697822570800781 5.123439788818359375 9.9320802688598632812
1 5.0443201065063476562 5.6778302192687988281 6.4588799476623535156
1 3.2506699562072753906 3.2426099777221679688 5.1827597618103027344
1 1.7239600419998168945 0.2497259974479675293 1.5656499862670898438
1 0.61348801851272583008 8.5642900466918945312 9.2986097335815429688
1 6.8405900001525878906 2.6198298931121826172 7.1391401290893554688
1 1.1758400201797485352 6.2437500953674316406 0.6490650177001953125
1 5.4532299041748046875 4.9649901390075683594 7.1332898139953613281
1 2.9363501071929931641 4.8666300773620605469 3.7315499782562255859
1 1.9527100324630737305 6.2210001945495605469 2.0990099906921386719
1 1.5923899412155151367 2.7083599567413330078 3.9811100959777832031
1 -0.52333498001098632812 6.0207400321960449219 6.8523101806640625
1 2.0618801116943359375 5.64076995849609375 6.3604102134704589844
1 5.5137400627136230469 4.3650798797607421875 9.0177202224731445312
1 2.64253997802734375 6.936100006103515625 2.8625800609588623047
1 -0.1231580004096031189 2.2202999591827392578 2.9840199947357177734
1 4.5475797653198242188 5.3622598648071289062 4.6423702239990234375
1 1.8966000080108642578 0.20803299546241760254 0.44144099950790405273
1 -2.1595699787139892578 5.7621197700500488281 0.74321597814559936523
1 4.5527200698852539062 5.5091900825500488281 7.3715901374816894531
1 2.5442099571228027344 1.940610051155090332 2.4795498847961425781
1 -2.5701398849487304688 7.3684902191162109375 2.0374100208282470703
1 3.8467299938201904297 5.6404199600219726562 3.0223200321197509766
1 9.0863504409790039062 2.792449951171875 8.7075300216674804688
1 5.5301299095153808594 5.1006298065185546875 8.156829833984375
1 3.6037399768829345703 3.2647700309753417969 9.9664096832275390625
1 4.9191799163818359375 3.7266099452972412109 1.2952500581741333008
1 6.0018200874328613281 2.5568699836730957031 2.3970201015472412109
1 4.501689910888671875 6.6319899559020996094 6.9415898323059082031
1 4.573490142822265625 6.3662900924682617188 5.8931298255920410156
1 -1.6907700300216674805 7.0029702186584472656 3.5447800159454345703
1 5.1979298591613769531 1.4818099737167358398 5.8225998878479003906
1 0.98650002479553222656 6.5383400917053222656 2.7099499702453613281
1 0.32988300919532775879 4.9128499031066894531 3.0986199378967285156
1 6.3573398590087890625 5.0361800193786621094 9.7349300384521484375
1 4.5015201568603515625 6.2294898033142089844 3.7811999320983886719
1 6.723529815673828125 4.666339874267578125 0.51416301727294921875
1 2.9935400485992431641 6.2407498359680175781 5.9451899528503417969
1 6.0282602310180664062 2.3557400703430175781 1.4504799842834472656
1 -0.90394097566604614258 8.0388898849487304688 8.2238597869873046875
1 0.67128902673721313477 0.92546898126602172852 2.9442799091339111328
1 1.8682399988174438477 4.4010300636291503906 9.96446990966796875
1 2.1447000503540039062 5.0839099884033203125 8.1748304367065429688
1 8.1408596038818359375 4.1520600318908691406 9.7668895721435546875
1 8.7130603790283203125 1.7556600570678710938 4.00428009033203125
1 8.3869600296020507812 3.5081501007080078125 5.3048801422119140625
1 6.7623801231384277344 3.3080000877380371094 6.4012799263000488281
1 1.1595599651336669922 3.6655399799346923828 9.3507299423217773438
1 4.1466698646545410156 2.9303300380706787109 7.8070502281188964844
1 4.9258198738098144531 2.528079986572265625 7.1102199554443359375
1 7.2433600425720214844 6.1055698394775390625 5.3727297782897949219
1 3.3505399227142333984 1.6751500368118286133 3.0306398868560791016
1 -1.4706799983978271484 6.5592699050903320312 1.3266999721527099609
1 3.8470799922943115234 3.9441800117492675781 7.9720001220703125
1 -0.83138501644134521484 6.7079601287841796875 5.9509401321411132812
1 7.4031801223754882812 4.04878997802734375 6.97274017333984375
1 2.0443298816680908203 5.8067898750305175781 7.3576002120971679688
1 2.4577000141143798828 1.1982300281524658203 3.2715198993682861328
1 5.4788999557495117188 7.1065998077392578125 1.4796600341796875
1 0.18057100474834442139 6.3287601470947265625 4.304309844970703125
1 4.9339098930358886719 4.1199598312377929688 5.5479297637939453125
1 6.0952801704406738281 1.8393499851226806641 5.566989898681640625
1 2.3528499603271484375 1.5992399454116821289 6.463970184326171875
1 3.9791901111602783203 7.1293702125549316406 0.46500000357627868652
1 3.8829898834228515625 5.6783399581909179688 5.4167699813842773438
1 0.78193700313568115234 0.49107700586318969727 1.09449005126953125
1 7.1692500114440917969 7.1589498519897460938 6.5556597709655761719
1 1.7994199991226196289 7.7853498458862304688 5.6661701202392578125
1 7.1326398849487304688 5.0283899307250976562 6.092639923095703125
1 5.4261999130249023438 6.8681502342224121094 5.4672999382019042969
1 5.2240700721740722656 1.9539099931716918945 3.0124900341033935547
1 5.1933598518371582031 1.5112899541854858398 6.9270801544189453125
1 4.7491497993469238281 4.9488501548767089844 8.8872404098510742188
1 0.4612840116024017334 2.4352400302886962891 5.5222902297973632812
1 3.3303000926971435547 0.39988499879837036133 1.4675199985504150391
1 2.4872798919677734375 4.9054698944091796875 9.3253297805786132812
1 0.76384598016738891602 7.7860598564147949219 3.0005900859832763672
1 6.0302901268005371094 1.5953400135040283203 3.5197799205780029297
1 8.6495304107666015625 2.8321599960327148438 7.3396401405334472656
1 -0.37070098519325256348 3.3498899936676025391 3.0197501182556152344
1 8.8294095993041992188 3.0335099697113037109 9.7412700653076171875
1 6.8915500640869140625 2.3744699954986572266 4.9875202178955078125
1 3.9671700000762939453 6.28610992431640625 1.1755700111389160156
1 6.2910399436950683594 7.00753021240234375 7.8788399696350097656
1 3.3721699714660644531 0.77175599336624145508 2.4774599075317382812
1 3.0174300670623779297 2.7384099960327148438 4.2549901008605957031
1 0.68023699522018432617 3.4971299171447753906 0.35097199678421020508
1 4.9131398200988769531 3.0541501045227050781 3.1317200660705566406
1 0.97916299104690551758 7.1281299591064453125 7.1434698104858398438
1 2.0833399295806884766 6.7799401283264160156 0.23787799477577209473
1 -0.2438649982213973999 5.8771800994873046875 8.2730998992919921875
1 -0.20134599506855010986 4.2074098587036132812 2.3361599445343017578
1 1.2543900012969970703 3.5099799633026123047 3.2941799163818359375
1 1.7095999717712402344 8.2002496719360351562 8.8487901687622070312
1 0.056584801524877548218 3.3570199012756347656 1.1772999763488769531
1 0.34614101052284240723 4.5750398635864257812 7.9521198272705078125
1 6.9418501853942871094 2.0431799888610839844 1.8404500484466552734
1 8.941120147705078125 0.76057600975036621094 5.7077198028564453125
1 5.9768500328063964844 1.4846500158309936523 2.4602799415588378906
1 1.2176300287246704102 7.0355100631713867188 6.0450801849365234375
1 1.1326999664306640625 5.5453400611877441406 2.6052100658416748047
1 2.8406400680541992188 5.1254200935363769531 5.7371201515197753906
1 1.0847100019454956055 6.1003499031066894531 7.0715999603271484375
1 7.240039825439453125 2.6872999668121337891 8.5993795394897460938
1 4.5616397857666015625 7.3330597877502441406 4.1077299118041992188
1 5.1541600227355957031 1.4984999895095825195 0.68617397546768188477
1 5.4361100196838378906 5.6107997894287109375 4.1119999885559082031
1 0.8185049891471862793 7.4178900718688964844 8.2290401458740234375
1 -0.52379900217056274414 4.2768797874450683594 3.4166901111602783203
1 2.3877100944519042969 0.9663270115852355957 1.9257099628448486328
1 0.38307300209999084473 4.5168499946594238281 6.9284000396728515625
1 8.54611968994140625 2.5311899185180664062 4.7562999725341796875
1 1.6952500343322753906 7.3179697990417480469 3.4514400959014892578
1 2.4168500900268554688 4.9945597648620605469 0.98655098676681518555
1 1.4445699453353881836 5.2458100318908691406 0.65705597400665283203
1 5.8184599876403808594 3.6263799667358398438 5.8822498321533203125
1 1.8337800502777099609 6.65048980712890625 6.7152600288391113281
1 1.0071899890899658203 8.018810272216796875 5.1714000701904296875
1 5.5767002105712890625 3.3024399280548095703 8.8555202484130859375
1 6.1616001129150390625 7.2451801300048828125 9.0712604522705078125
1 7.1059298515319824219 5.5517101287841796875 9.4713802337646484375
1 3.8912398815155029297 2.3343400955200195312 9.6475801467895507812
1 7.9961800575256347656 3.2500200271606445312 9.1603603363037109375
1 8.7309703826904296875 1.6133699417114257812 4.9641599655151367188
1 5.5253300666809082031 5.6508798599243164062 3.0927500724792480469
1 -0.51079201698303222656 6.4819698333740234375 2.6702399253845214844
1 1.2302999496459960938 4.6877698898315429688 3.4881300926208496094
1 -0.15842899680137634277 6.7913198471069335938 1.4140000343322753906
1 4.7838702201843261719 4.159130096435546875 3.1777999401092529297
1 2.7978999614715576172 6.37248992919921875 6.970149993896484375
1 3.2668700218200683594 2.7732501029968261719 3.1833400726318359375
1 7.9915800094604492188 0.53781098127365112305 0.081455498933792114258
1 7.9502301216125488281 1.0807000398635864258 6.5200099945068359375
1 5.9810800552368164062 0.12749700248241424561 1.0109599828720092773
1 -1.2135499715805053711 4.4828200340270996094 2.0905001163482666016
1 7.9161601066589355469 6.18235015869140625 9.0769195556640625
1 -0.45342800021171569824 5.2093100547790527344 2.6117999553680419922
1 -0.33637499809265136719 5.0759701728820800781 0.4415079951286315918
1 5.4132399559020996094 6.6801300048828125 9.3987398147583007812
1 5.7277598381042480469 3.8191900253295898438 4.9186601638793945312
1 5.7875599861145019531 2.1887400150299072266 8.5599603652954101562
1 8.6544904708862304688 1.7517499923706054688 6.0097198486328125
1 3.6813900470733642578 6.1440000534057617188 7.5846300125122070312
1 4.0156002044677734375 3.3953800201416015625 3.8559501171112060547
1 6.1655101776123046875 7.6491999626159667969 5.2280001640319824219
1 3.5087099075317382812 7.5115499496459960938 9.730319976806640625
1 6.4116001129150390625 3.0216400623321533203 9.249019622802734375
1 7.7425599098205566406 1.5108900070190429688 0.10759399831295013428
1 3.9220299720764160156 4.6022601127624511719 4.0670099258422851562
1 3.1745800971984863281 3.8034598827362060547 3.2566900253295898438
1 4.3561000823974609375 0.57144600152969360352 1.9942200183868408203
1 3.8432199954986572266 3.3830499649047851562 8.9577999114990234375
1 0.15527099370956420898 6.5753397941589355469 7.4874501228332519531
1 1.5465699434280395508 5.3639597892761230469 8.9656400680541992188
1 3.5631499290466308594 2.5541601181030273438 0.99053800106048583984
1 1.1227799654006958008 5.7705898284912109375 4.6420001983642578125
1 -0.8493639826774597168 7.1724300384521484375 0.78599697351455688477
1 5.4496698379516601562 6.6163001060485839844 4.4681401252746582031
1 3.6912200450897216797 6.8866400718688964844 6.3158397674560546875
1 6.3410902023315429688 4.7312798500061035156 7.5796899795532226562
1 -1.6850199699401855469 7.0808501243591308594 5.5307598114013671875
1 5.8220400810241699219 6.169139862060546875 0.20463000237941741943
1 0.74571698904037475586 2.1739900112152099609 4.5376000404357910156
1 7.5233998298645019531 3.7474598884582519531 2.8257501125335693359
1 0.70943999290466308594 3.9514799118041992188 1.7284599542617797852
1 0.89506000280380249023 8.1461095809936523438 6.1196298599243164062
1 8.29586029052734375 4.7117700576782226562 6.59066009521484375
1 6.2077898979187011719 8.5044803619384765625 9.479160308837890625
1 -0.69155597686767578125 5.3734498023986816406 3.5510299205780029297
1 6.8793101310729980469 1.8406499624252319336 0.86236500740051269531
1 6.8423299789428710938 2.9343800544738769531 1.1534099578857421875
1 9.5191698074340820312 1.2895499467849731445 6.3878998756408691406
1 5.0867099761962890625 3.7983400821685791016 2.3185200691223144531
1 4.5050101280212402344 1.7147500514984130859 2.4354100227355957031
1 1.2397199869155883789 5.0700497627258300781 5.6469101905822753906
1 4.0744099617004394531 5.2031002044677734375 0.94243597984313964844
1 6.0396299362182617188 1.9437400102615356445 6.6289300918579101562
1 3.6109299659729003906 5.2613902091979980469 9.3223695755004882812
1 5.6127500534057617188 4.9090199470520019531 6.1595897674560546875
1 3.5374999046325683594 0.32091501355171203613 0.51269197463989257812
1 3.2155098915100097656 1.9683500528335571289 6.0593400001525878906
1 8.5294103622436523438 1.2049100399017333984 2.8479800224304199219
1 4.2749400138854980469 1.7797100543975830078 6.5029301643371582031
1 1.2158399820327758789 5.0612101554870605469 6.6900601387023925781
1 -0.23677399754524230957 4.1390399932861328125 0.027269599959254264832
1 -0.10869900137186050415 2.8674499988555908203 2.1050500869750976562
1 0.46090799570083618164 4.9763398170471191406 1.9283399581909179688
1 1.6871000528335571289 7.0934300422668457031 8.6999597549438476562
1 2.8548700809478759766 6.7254500389099121094 1.7997900247573852539
1 5.3523402214050292969 2.0167300701141357422 4.0542497634887695312