666
Atoms. Timestep: 0
1 5.82347 2.09505 0.834199
1 4.58172 8.00537 6.54418
1 1.57821 7.22705 6.55099
1 2.75115 3.62164 3.36399
1 1.61002 5.2051 1.68458
1 8.80701 4.6058 9.74737
1 5.08443 8.3188 7.4967
1 3.09105 8.08017 7.31169
1 5.15801 1.68589 0.0827131
1 6.82171 7.53832 8.14675
1 3.30809 1.33485 9.82599
1 5.1797 7.50043 4.13025
1 1.99338 2.87634 4.78836
1 0.373013 2.33658 0.66296
1 2.23295 3.30094 2.45512
1 -0.918569 7.36851 4.1932
1 1.63736 3.9439 9.82795
1 5.59901 6.54276 7.84033
1 6.1443 5.68922 2.03456
1 6.75284 1.62332 9.25413
1 1.23217 2.35152 4.13628
1 3.71092 3.06274 3.43015
1 4.5465 1.06909 1.72484
1 -0.285698 4.15514 3.57259
1 1.7167 7.15725 8.6452
1 5.50641 2.23987 4.27339
1 7.56607 5.25123 8.4027
1 -2.19365 6.05052 1.06072
1 -1.18001 5.79366 0.33944
1 9.14738 2.04257 8.27769
1 3.45927 3.94312 9.79927
1 6.3745 4.73013 1.40454
1 7.62379 2.10289 1.76661
1 7.17288 1.39004 4.13554
1 7.42598 6.61722 6.82028
1 1.81752 1.88589 9.27123
1 0.32023 4.14118 4.6124
1 6.05192 2.32755 9.79761
1 5.98677 4.63271 0.297013
1 1.20082 2.07671 3.10592
1 0.00211469 5.90863 2.67858
1 3.69636 3.25538 7.58504
1 6.77116 3.92331 0.713636
1 3.59279 4.91748 4.9187
1 6.15878 1.24853 0.265688
1 7.217 2.47392 3.97294
1 0.75705 3.3792 6.48517
1 -1.17616 5.7884 4.3199
1 1.00642 3.10599 3.31859
1 1.13672 5.64168 7.24799
1 1.52572 4.85859 3.67757
1 4.35148 5.37324 8.85378
1 5.87927 6.73517 6.79138
1 1.57155 2.82749 9.79895
1 2.77479 2.29489 9.4906
1 5.73507 3.60718 0.309456
1 5.98407 7.69478 7.39801
1 -0.65159 3.60769 1.36056
1 8.2636 0.993307 5.54256
1 -1.9942 7.15673 0.965569
1 2.15484 6.03662 7.15693
1 9.43312 1.58101 7.31252
1 3.89714 6.98995 0.162035
1 4.26583 1.74907 3.2948
1 5.75041 3.24168 7.21668
1 7.38928 1.0047 1.57195
1 1.94716 1.82835 4.86685
1 5.91675 3.44648 5.16888
1 6.09378 5.66607 0.233208
1 3.65907 2.07922 4.15252
1 3.98137 5.72863 2.56238
1 0.912116 4.24532 2.63229
1 -0.728411 6.77445 0.0554597
1 1.88477 3.87845 5.27859
1 3.79253 1.95423 1.59136
1 6.67026 6.71947 5.99383
1 7.9389 0.520199 0.1992
1 6.5744 5.81876 3.92018
1 3.61759 7.32795 4.81141
1 5.82121 6.85648 2.81042
1 8.43202 2.39926 6.36814
1 1.97556 2.31285 2.14263
1 2.82122 3.28423 8.21376
1 -0.605803 6.61181 4.86283
1 6.70188 3.13637 3.36565
1 -1.8439 7.7042 3.74052
1 8.20957 2.63606 8.28743
1 1.16612 3.21062 2.25814
1 6.13024 6.22121 9.53035
1 2.18568 1.10138 2.09138
1 6.02528 2.19011 8.71878
1 1.59766 1.37701 3.86968
1 0.365473 4.22044 8.07099
1 4.64903 6.95012 6.27323
1 4.1554 3.27562 0.0122807
1 -0.332407 8.07406 6.73569
1 2.18131 2.56296 6.74466
1 5.24595 4.34859 7.25673
1 7.43882 4.34821 4.85402
1 3.7502 5.10355 6.30156
1 1.00768 3.60307 7.5118
1 7.89617 4.0945 9.64493
1 7.05112 2.20679 4.97302
1 -1.82867 6.53969 0.0704525
1 6.26488 3.4243 9.89191
1 6.65901 1.86019 5.909
1 6.79035 2.06995 6.97477
1 -0.88997 8.38904 8.07724
1 7.20023 7.29412 9.20186
1 4.76073 1.63867 7.25147
1 4.75034 5.14215 6.72286
1 0.773875 4.40616 9.05311
1 3.31975 6.14186 9.22022
1 6.0443 3.42525 2.58728
1 6.53251 4.92307 6.38173
1 8.24495 1.92837 2.63835
1 1.03855 5.76317 4.81238
1 6.97257 8.23052 9.7121
1 4.1848 1.36939 8.13245
1 6.49075 5.05084 3.15359
1 2.90636 5.79744 6.22433
1 7.21762 2.13771 2.97058
1 3.02781 7.41907 1.55042
1 8.82818 2.94391 7.19655
1 9.63495 1.48617 9.2105
1 1.88575 7.51988 5.56785
1 8.33388 0.922499 2.1748
1 5.64893 1.75458 1.87038
1 5.30108 1.19799 1.0224
1 4.04731 7.36588 1.2322
1 6.60394 0.713621 2.3259
1 6.25003 3.6767 8.10715
1 -0.370861 7.2355 0.999808
1 -1.06963 7.42658 6.22931
1 -0.532815 7.56805 9.39667
1 7.00542 0.937517 6.33423
1 1.92063 6.2209 9.10393
1 2.51317 2.01336 8.4034
1 -1.37882 5.64957 3.29956
1 1.58964 3.00169 5.8696
1 6.98033 3.77258 9.19268
1 6.80406 8.37434 7.51105
1 6.95832 8.45857 8.61296
1 5.42333 4.28779 1.10423
1 0.836863 5.31823 2.99112
1 6.896 1.91831 0.984839
1 7.6774 2.12782 9.48174
1 4.13689 6.69631 7.30896
1 5.81824 3.17379 8.99898
1 6.01392 2.55058 6.40262
1 4.43249 2.10412 8.8513
1 5.55608 5.34723 1.13014
1 6.42079 2.92183 0.690382
1 4.93955 0.18247 1.25644
1 3.62024 4.73123 2.27407
1 2.2947 5.58645 3.36957
1 2.47288 4.70855 8.32917
1 9.1715 3.10416 8.20905
1 4.91666 1.05865 2.79764
1 6.12671 4.88731 4.21288
1 4.53649 8.05048 8.40239
1 7.32753 6.52768 8.36006
1 8.18929 3.72212 4.54671
1 3.51495 4.04039 5.50568
1 2.93693 1.82272 2.26432
1 0.763515 8.51935 9.24557
1 2.75135 3.40401 7.10315
1 1.74212 3.49516 6.79423
1 7.25246 6.25056 5.23342
1 1.41657 1.946 8.08256
1 4.5525 4.99584 5.42849
1 3.35291 1.43338 7.4917
1 4.85072 2.18728 1.27811
1 4.56406 2.61299 3.90639
1 7.74978 1.60863 6.77449
1 -0.00511414 7.11972 5.63725
1 4.13862 4.8861 3.95575
1 2.05149 3.82552 4.19222
1 5.17504 3.91944 2.99996
1 6.23815 3.67182 1.58555
1 -0.367246 5.36421 3.51951
1 0.339253 1.35546 2.73336
1 1.27744 3.52806 8.50565
1 6.12723 6.86168 3.90572
1 0.592662 5.27567 8.07728
1 5.13004 4.07266 5.39188
1 3.63852 7.15207 8.79011
1 1.75319 5.04636 5.42676
1 0.118108 4.30232 1.00088
1 -1.21192 5.35558 1.31935
1 4.5535 3.66836 1.0242
1 6.54777 3.95156 4.43909
1 5.19242 4.78003 8.97123
1 6.04524 1.40896 6.67859
1 -0.600743 2.61514 1.00269
1 2.75098 5.61633 5.18127
1 0.46257 6.70896 4.64323
1 4.49325 3.72856 3.78574
1 4.65576 6.0074 7.9757
1 4.32416 6.38223 9.01842
1 0.39454 6.15236 3.67058
1 1.87016 0.784247 4.70406
1 3.23607 4.11334 8.76521
1 2.05304 3.35051 0.208186
1 7.51711 1.12251 2.85101
1 2.5521 4.60621 3.65732
1 5.24153 3.79286 9.65679
1 5.94873 1.38143 2.80287
1 -0.540006 2.86582 2.13571
1 3.88157 6.19843 6.44112
1 1.57898 8.25713 6.63948
1 7.84025 0.637022 4.539
1 2.29448 1.27664 0.479445
1 3.76923 5.76359 5.48711
1 4.11478 6.56068 1.89885
1 6.48864 2.66787 7.89118
1 1.937 4.08755 0.958295
1 5.24381 5.22977 2.39838
1 6.32325 2.89253 4.35506
1 1.52838 6.93308 0.319015
1 -2.99109 7.4504 1.23522
1 5.08522 3.60944 6.46484
1 3.98652 0.489718 0.954594
1 4.54055 7.02793 8.21292
1 -0.0582086 4.76156 2.67694
1 5.48034 7.50421 8.3151
1 -0.228998 6.19615 0.785664
1 2.44783 7.07239 7.23223
1 -0.414113 5.62363 7.86943
1 7.90787 3.41509 6.8854
1 0.425133 5.0088 5.22106
1 1.20262 1.6818 0.260104
1 1.37558 4.56854 8.18912
1 1.46507 6.5687 7.76673
1 -0.404025 4.3702 5.40016
1 4.62132 4.62068 1.77247
1 -1.18026 6.52015 1.08339
1 7.84199 3.13857 9.1798
1 3.51293 3.49985 1.01876
1 2.56138 4.58246 4.7997
1 3.22645 1.06879 1.42758
1 3.84951 4.23989 0.281988
1 3.13989 4.21465 7.64957
1 -0.793004 5.48448 5.2547
1 0.84599 3.724 5.45701
1 6.32481 6.76766 8.6533
1 0.611951 4.82405 1.80212
1 5.4838 5.70917 8.51474
1 -0.0413905 6.93396 8.54649
1 3.17372 7.22991 2.85342
1 3.20649 7.96199 9.34085
1 2.06729 5.16635 0.738018
1 6.10791 3.60663 6.24545
1 1.39998 0.926497 2.90833
1 2.1671 0.208028 0.238932
1 5.40342 2.85388 8.11737
1 6.76094 3.00932 5.64888
1 4.17842 8.45369 9.37912
1 4.06555 3.30492 6.59672
1 2.77457 4.75564 5.85287
1 0.57763 7.48931 1.96247
1 4.68528 1.58149 4.23916
1 7.36146 5.84978 7.54833
1 3.84338 3.20859 4.52532
1 5.19312 3.88867 8.38813
1 4.03644 7.66332 3.54686
1 4.03133 7.56826 2.31157
1 5.40848 4.84858 3.44221
1 0.215963 1.29942 0.50263
1 7.24895 6.48999 9.92538
1 5.63134 5.50735 7.43885
1 0.151383 2.35354 3.37824
1 1.15353 0.697208 0.632928
1 2.69233 4.3511 2.59945
1 7.2355 1.32581 0.0822402
1 4.72098 3.4772 7.50403
1 6.03453 4.1812 9.05583
1 3.0248 2.75078 1.73436
1 4.25948 3.83217 2.38489
1 3.34735 6.73689 5.68874
1 5.12128 6.6023 3.56398
1 5.24807 6.59689 4.68785
1 2.96045 7.75502 5.52139
1 1.90402 6.01146 2.39782
1 0.08118 3.3491 2.9037
1 5.15804 5.72262 9.50995
1 3.38484 5.14818 3.23008
1 0.921814 6.47135 8.72891
1 3.0309 5.40029 4.17821
1 -1.09152 4.65676 3.07445
1 -0.223447 5.27146 6.09462
1 1.10282 2.3734 1.46509
1 -0.106243 1.89774 1.62064
1 1.07972 4.56714 7.09815
1 8.64003 3.4514 9.9483
1 0.173927 3.2481 3.96865
1 6.79812 3.19135 7.03052
1 6.22682 1.55622 4.68906
1 7.25089 3.05298 1.31732
1 4.91214 2.64525 6.86279
1 0.638946 7.67906 6.27807
1 0.375592 6.13559 6.61669
1 2.74272 3.79422 1.63593
1 -0.187424 5.52302 1.65459
1 6.26455 4.16143 7.13886
1 5.10221 1.83762 5.18437
1 7.44754 4.78596 5.80967
1 2.42555 6.73134 6.19518
1 3.96615 0.478194 3.02251
1 8.40921 0.662314 1.14867
1 0.799637 5.8535 1.96803
1 3.35313 4.10467 6.55488
1 7.2721 3.24674 4.74204
1 2.56451 0.931264 3.76192
1 5.49641 6.3807 1.44318
1 2.46285 5.85859 1.45758
1 -0.951593 8.50232 9.15177
1 -0.597193 6.43315 3.70437
1 3.16878 7.04315 3.88689
1 7.27304 4.08317 7.56883
1 5.88971 7.79168 3.36087
1 6.98967 4.99564 2.22331
1 2.51224 7.78167 6.45621
1 4.45902 3.16603 8.69943
1 7.99342 1.74369 4.75147
1 -1.37632 7.11001 1.93966
1 0.519808 5.07555 0.00443925
1 0.997208 6.40631 2.84441
1 7.17035 4.83123 3.96267
1 1.02123 2.58414 7.27844
1 -1.06076 4.38252 0.767796
1 5.95611 8.43292 8.22794
1 6.19448 2.41068 2.74711
1 3.20876 6.5023 0.991347
1 7.33479 5.74749 6.18742
1 1.18531 1.60192 2.16893
1 2.45747 1.99313 3.96015
1 -0.652502 4.5871 1.78331
1 5.58252 3.07426 3.55081
1 0.725554 7.04753 7.13478
1 2.56025 1.88598 1.30395
1 6.78693 4.55493 8.4204
1 -0.848057 3.79569 2.52849
1 0.111977 3.90256 2.03188
1 0.686601 8.12414 7.27618
1 4.96241 7.22598 1.86577
1 0.166665 5.11694 7.07315
1 9.56873 3.42421 9.41423
1 4.96348 6.18241 6.95514
1 3.74729 2.42361 2.58272
1 1.02786 7.6291 4.80456
1 3.07002 6.22854 3.1315
1 8.16511 4.33588 6.44256
1 1.60238 7.60836 7.54368
1 8.80191 2.70363 9.15231
1 1.40502 5.96146 3.78056
1 7.39259 2.63351 0.335002
1 4.33447 6.6456 5.2682
1 7.05405 5.854 9.11696
1 0.79577 4.09197 3.67097
1 0.556371 1.09759 1.48848
1 0.913839 5.30753 6.15903
1 7.4184 2.64504 6.34782
1 0.00265766 6.95431 2.77352
1 0.631834 6.19723 0.14144
1 3.63518 6.93682 9.88059
1 4.35984 4.26751 6.15722
1 4.03733 1.36422 6.41845
1 1.4801 1.81281 6.7278
1 5.64006 1.08361 7.59695
1 5.41622 7.43686 9.85814
1 4.88359 4.20208 0.14586
1 5.05653 2.63414 9.5181
1 8.69878 1.78651 9.62337
1 6.08235 7.26491 5.25052
1 4.46253 4.74068 2.9175
1 -0.0255053 7.69752 4.73653
1 0.392868 4.38439 6.15486
1 3.13192 0.655071 0.351868
1 5.20285 2.82 5.77148
1 6.53496 1.60668 7.87517
1 5.99936 2.38574 5.26744
1 0.191224 6.73301 9.56382
1 2.34825 4.33148 6.73952
1 4.98586 2.7202 0.316442
1 -0.88541 5.43593 2.40135
1 0.950531 5.46524 9.05773
1 7.2207 4.06636 1.71267
1 1.78785 7.0426 9.76398
1 2.85501 4.41507 0.584787
1 6.68331 4.09927 5.52709
1 2.95236 0.862069 2.78983
1 1.45891 4.30701 6.14423
1 3.59733 5.00975 8.20605
1 4.30774 4.13894 4.75222
1 3.37232 0.782754 5.69699
1 0.451068 7.30153 0.0458893
1 7.27084 2.14778 8.45261
1 2.52315 3.34375 9.65825
1 5.4188 5.65506 5.18509
1 3.22921 1.71466 3.28661
1 2.17957 1.66558 2.99715
1 2.7639 5.61445 7.95451
1 6.75957 7.44328 6.74944
1 1.08821 6.21137 9.80043
1 2.80766 5.4488 2.40949
1 1.30196 4.50512 4.64485
1 -0.465205 7.60173 2.00958
1 4.72625 5.89913 5.93431
1 4.02724 7.61861 5.7237
1 6.18099 5.22553 9.15028
1 1.03705 6.84378 5.6127
1 -2.84059 6.73551 0.427758
1 8.03893 1.87359 3.67921
1 7.45538 3.79735 3.75259
1 -0.0257776 3.36977 0.509581
1 1.88207 6.12372 5.47168
1 0.551406 5.08016 4.05337
1 6.22366 7.77822 9.06177
1 6.88514 5.25584 4.91283
1 6.33255 2.60944 1.70395
1 8.01498 5.41513 9.3756
1 1.00191 2.47172 5.17372
1 4.5411 5.03842 0.776651
1 -0.354959 6.54663 1.83022
1 1.99495 5.01133 7.44705
1 4.1904 6.2107 0.872176
1 6.01633 1.16637 8.65078
1 2.59926 4.46512 9.62469
1 7.11617 4.04618 6.50947
1 3.28483 1.74533 0.484729
1 -0.954514 7.57833 5.22608
1 6.63853 0.833072 3.41066
1 5.16025 1.8335 6.24222
1 1.97045 5.28833 6.42208
1 4.059 5.7395 9.91189
1 6.72475 1.71927 2.11511
1 1.79905 4.16211 2.00977
1 1.49422 8.17854 8.48691
1 4.12373 4.42021 7.20371
1 2.07995 7.40492 4.07625
1 1.84556 2.37082 0.705902
1 6.25363 6.27751 4.81962
1 0.290746 3.02979 1.48349
1 6.39256 5.72866 5.6982
1 2.59571 5.4264 9.06971
1 3.42605 3.12624 9.13083
1 5.55888 6.53988 5.78331
1 4.64354 2.96177 2.903
1 0.986879 3.85765 1.43102
1 5.82671 1.19525 5.66639
1 0.693826 2.32659 6.23204
1 3.46629 7.25054 6.65194
1 3.68208 0.986433 3.92917
1 7.60274 1.41793 7.78012
1 2.39087 1.20407 5.64514
1 2.95363 2.45264 7.48707
1 1.09439 6.9986 3.73136
1 4.24839 2.39154 6.04866
1 3.52654 4.96345 9.33938
1 -1.06466 3.60342 0.0317997
1 0.896183 7.46352 9.24754
1 5.35789 2.72748 2.17312
1 -1.62568 6.06519 1.95237
1 1.8158 4.9612 2.68157
1 3.67963 4.51939 1.27132
1 5.53788 4.553 6.24257
1 1.9844 5.39762 4.45668
1 8.62095 3.42258 6.0224
1 4.7792 6.59059 9.92364
1 5.32381 6.7098 8.99453
1 2.67052 7.02459 9.14481
1 8.68088 3.77945 8.91756
1 1.76179 3.93789 3.15811
1 4.98761 3.0945 4.73998
1 3.5474 5.58357 1.56402
1 4.98279 6.29711 2.47987
1 8.84595 1.915 5.45047
1 3.18862 2.69568 6.44932
1 5.63616 1.18327 3.80174
1 2.80942 3.53979 4.9166
1 1.68821 5.624 8.26078
1 3.09558 3.50441 0.0235627
1 1.34879 7.39374 2.71082
1 0.217195 0.289083 0.183769
1 2.24568 1.70639 7.41569
1 -0.364849 5.15347 0.646665
1 5.4679 3.91806 4.26887
1 2.84035 2.71994 0.680529
1 5.94007 4.75909 5.25391
1 2.17044 3.88605 8.84679
1 4.72808 5.65558 3.35459
1 3.8385 5.96178 3.77223
1 2.05689 3.91937 7.73298
1 2.91521 2.92412 4.08535
1 3.10058 6.44158 2.08614
1 6.14994 4.06581 3.4617
1 2.99946 5.11475 7.05065
1 0.396627 6.29465 7.77551
1 1.90981 3.13632 1.43052
1 5.53894 7.58092 6.25064
1 -0.992674 6.4487 2.70868
1 2.05074 2.84175 8.8347
1 3.96186 2.59212 0.797132
1 9.83012 2.52453 8.91711
1 -2.11832 6.22846 2.85009
1 1.41609 6.22081 6.40976
1 -0.259687 6.98796 6.73589
1 5.37882 0.852554 4.76313
1 0.792825 7.41489 8.15595
1 4.6616 1.97274 2.30852
1 4.82673 0.615609 0.259711
1 1.97077 2.90332 3.60771
1 0.560346 1.41319 3.75079
1 5.20384 1.78618 8.2334
1 1.13098 4.72753 0.834533
1 0.577569 5.56338 0.97055
1 4.28889 1.47807 0.734609
1 6.5347 5.90689 6.85415
1 2.86926 1.68741 6.5508
1 6.8848 0.49321 0.63709
1 0.0980435 3.99397 7.08855
1 1.89873 5.55883 9.95447
1 -0.660721 6.64426 7.67234
1 1.36546 1.57448 5.72391
1 -2.00707 7.28714 2.77282
1 5.9768 4.4679 2.38341
1 8.4215 0.92885 3.49832
1 2.56119 6.93174 4.97863
1 2.2519 7.76535 3.08213
1 0.193163 5.64786 9.77211
1 7.57511 2.56283 7.45654
1 5.27179 1.56702 9.33513
1 4.65561 5.68 1.6453
1 -0.937117 7.42736 8.40879
1 0.127275 3.07811 5.03088
1 3.63452 6.18096 8.19391
1 0.840074 4.03872 0.130318
1 1.1101 3.384 4.46198
1 2.6547 4.8232 1.57731
1 3.82763 1.30506 2.4236
1 2.20132 6.84761 1.20174
1 2.04823 6.69011 3.23807
1 8.80105 1.3947 6.43382
1 8.60541 4.86112 8.69823
1 6.80376 2.74684 9.16048
1 0.0637562 7.26757 3.78622
1 3.56519 2.49908 8.3216
1 3.89568 2.23201 7.04041
1 4.1214 6.70103 3.03549
1 4.92123 7.44496 2.92123
1 -0.611921 5.87837 6.87027
1 3.34129 7.14608 7.79662
1 7.27999 3.26374 8.26709
1 2.90393 7.9719 4.42164
1 2.30774 0.509524 1.22577
1 -1.17349 7.58021 7.35372
1 2.27326 7.06135 2.25695
1 4.71955 0.63375 3.77897
1 2.5872 3.49948 6.01199
1 4.91618 7.04053 0.777708
1 8.25988 3.59163 7.88051
1 4.29388 3.31813 9.75952
1 8.14348 2.71679 4.31947
1 3.31206 3.4268 2.4746
1 7.99495 2.71171 5.3785
1 3.41229 6.30516 4.6662
1 7.96116 1.59027 0.833786
1 4.46824 5.76918 4.61672
1 5.5547 0.672231 2.00059
1 2.10532 7.91575 9.33017
1 8.00292 6.50328 9.19531
1 1.07148 3.14872 0.673777
1 9.75745 0.927935 6.51459
1 2.44108 6.30391 4.14837
1 5.21359 3.74742 1.96552
1 3.34947 4.12078 4.20776
1 5.03474 7.44889 5.25678
1 4.10946 7.78421 7.45531
1 4.2095 2.34625 5.00036
1 -1.93987 7.85704 5.70813
1 0.457469 2.4145 2.36918
1 8.23416 1.65197 8.65299
1 1.34189 6.73429 1.86043
1 2.82389 7.02985 0.149772
1 2.49141 6.56904 8.19318
1 -1.61841 6.66746 3.68519
1 7.64466 3.65589 5.69141
1 2.7793 2.60145 3.00241
1 0.480123 0.380848 2.2959
1 6.63222 6.69966 7.55717
1 2.38029 2.29277 5.75638
1 7.93487 2.92747 3.23749
1 5.27443 8.23272 9.13328
1 3.1627 6.26976 7.19616
1 7.69534 1.8035 5.77027
1 0.2149 2.16809 4.43063
1 -2.42599 6.79475 1.89393
1 4.32189 4.23352 9.20569
1 4.29753 6.83083 4.1872
1 5.45685 3.073 1.18306
1 6.35712 1.95089 3.67282
1 5.81216 4.71799 8.10533
1 1.54965 6.68644 4.64644
1 6.48791 5.79588 8.20151
1 2.91951 2.27155 4.87073
1 5.6386 5.60437 6.37345
1 5.7202 2.14956 7.36267
1 7.76185 4.2023 8.59102
1 5.07478 4.86393 4.50605
1 -1.83747 7.11065 4.6738
1 4.27791 2.94485 1.79565
1 4.70252 0.95361 5.645
1 0.00363807 5.91254 8.77884
1 4.12349 4.05295 8.18768
1 4.48391 2.48381 7.84714
1 2.51138 7.64523 8.18208
1 0.642109 6.79877 1.04769
1 7.14722 4.79415 9.38929
1 2.91211 1.22004 4.7198
1 8.79329 1.07984 4.59125
1 5.76088 5.82757 3.10082
1 1.4758 6.0687 1.01113
1 3.42294 2.9335 5.4907
1 5.79951 0.34899 0.656237
1 5.1486 6.07983 0.454791
1 4.51796 7.43636 9.29348
1 2.07715 0.94505 6.61711
1 3.9749 1.26711 4.93982
1 3.41919 1.84494 5.66669
1 1.59608 1.42827 1.24066
1 3.95744 5.54001 7.3226
1 4.73469 4.944 7.9557
1 9.33593 0.889537 5.51085
1 -0.0702351 5.77133 4.53678
1 6.15914 7.88025 4.40219
1 4.35108 3.37668 5.54858
1 0.0323279 8.01505 8.62553
1 3.65661 4.13208 3.20857
1 1.38568 0.478183 1.7876
1 8.2021 4.61944 7.66421
1 -1.88176 5.05119 0.569319
1 3.4071 1.6334 8.8314
1 5.51317 5.75714 4.11961
1 1.74253 4.81856 9.16555
1 5.03506 7.26183 7.2445
1 3.48087 8.13627 8.33563
1 8.47085 1.98492 7.45003
1 5.27069 2.08313 3.22295
1 -0.973943 7.39017 3.13485
1 6.40652 7.15279 9.88955
1 1.94023 2.84737 7.75688
1 -0.145828 7.58881 7.66349
1 0.264824 6.05763 5.53039
1 -0.534028 4.81735 4.40669
1 3.54572 5.31023 0.517216
1 -0.698286 6.39518 5.92826
1 0.969009 1.478 4.74531
1 7.52613 4.99896 6.91793
1 7.14063 3.02588 2.36921
1 7.11702 1.11472 5.19198
1 3.81843 2.27642 9.65387
1 6.65061 5.04908 7.48878
1 2.33162 6.15696 0.393686
1 6.3166 1.08246 1.3338
1 6.92257 4.02967 2.74906
666
Atoms. Timestep: 1000
1 5.88491 1.69024 1.08975
1 4.37642 8.20975 6.49209
1 1.43033 7.36867 6.36817
1 2.69132 3.50329 3.03254
1 1.7896 5.55015 1.74288
1 6.98107 3.06576 0.0583889
1 5.28614 8.36911 7.81165
1 2.61077 8.09695 7.0032
1 5.40726 1.94685 0.17361
1 6.93909 7.6309 7.99601
1 3.21915 1.41356 9.94527
1 5.18116 7.47011 4.20066
1 1.85111 2.29063 4.36458
1 0.381672 2.46188 0.62872
1 2.19418 3.22853 2.14115
1 -1.08508 7.53584 3.90195
1 1.69509 3.74649 9.67305
1 5.54275 6.64534 7.82198
1 5.91053 5.51552 2.13252
1 6.92012 1.68956 9.04045
1 1.05222 2.83345 4.09168
1 3.84761 3.0154 3.27781
1 4.3908 0.909292 1.67655
1 -0.482829 3.9812 4.12197
1 1.67839 7.20649 8.6368
1 5.55307 2.14338 4.41245
1 7.22181 5.47526 8.41233
1 -2.3065 5.93381 1.26949
1 -1.2505 5.80745 0.325901
1 9.2014 1.94585 8.01648
1 3.27964 3.92808 9.49445
1 6.46632 4.83677 1.37811
1 7.3348 1.85322 2.16717
1 7.25236 1.45017 4.20006
1 7.23281 6.6049 6.56851
1 10.4173 1.73772 9.11618
1 0.349131 4.59246 4.46572
1 5.9491 2.26589 9.88589
1 6.0326 4.57254 0.357952
1 1.08104 2.50769 2.56868
1 -0.182851 5.79039 2.75769
1 3.49914 3.38331 7.54058
1 6.7934 3.97521 0.985737
1 3.87354 4.60411 5.01184
1 6.0284 1.01598 0.172089
1 7.22464 2.44149 4.06148
1 0.699278 3.58435 6.57933
1 -1.10992 5.91492 4.32375
1 0.835684 3.29301 3.14281
1 1.26104 5.61953 7.2976
1 1.54631 4.17514 3.80746
1 4.21974 5.61396 8.85438
1 5.95052 6.84801 6.63782
1 1.48731 2.81678 9.89599
1 2.46214 2.19535 9.42297
1 6.06311 3.57894 0.3049
1 6.08396 7.85577 7.23405
1 -0.514119 3.25819 1.7696
1 8.54768 1.00633 5.55437
1 -1.88851 6.84229 1.20844
1 2.43589 6.0007 7.26944
1 9.60478 1.5795 6.97805
1 6.07441 8.52482 9.86012
1 4.81974 1.83736 3.25779
1 5.84789 3.35543 7.31068
1 7.34254 0.983964 1.61887
1 2.00565 1.32408 4.68175
1 5.919 3.38506 5.55919
1 5.98302 5.70446 0.434091
1 3.56444 1.79743 4.30296
1 4.10401 5.71075 2.62994
1 0.987224 4.5759 2.30764
1 -0.431851 7.05953 0.263137
1 2.1532 4.19885 5.42802
1 3.73591 1.95164 1.45663
1 6.64163 7.28833 5.71433
1 8.20018 0.518899 0.232329
1 6.7557 5.69674 4.00304
1 3.61699 7.23865 4.71645
1 5.75771 7.11974 2.70228
1 8.9611 2.47107 6.36294
1 1.85772 2.31219 1.91374
1 2.53413 3.33934 8.25637
1 -0.742121 6.79535 4.49147
1 6.65343 2.75234 3.39853
1 -2.11698 7.34238 3.58287
1 8.3006 2.53506 8.17402
1 1.16737 3.42405 2.06853
1 6.20325 6.70918 9.7079
1 2.02521 0.714879 2.62863
1 6.16146 2.43792 8.91278
1 1.29882 1.83063 3.58043
1 0.276365 4.29521 8.25087
1 4.86364 7.19162 6.28553
1 4.2449 3.2823 0.261124
1 -0.0826425 8.24895 6.85454
1 2.07364 2.76314 6.65931
1 5.34621 4.25488 7.45496
1 7.52955 4.215 4.87597
1 3.78961 5.15797 6.15945
1 0.983718 3.74023 7.57998
1 8.12837 4.07275 9.68733
1 7.26123 2.29329 5.06417
1 -1.89175 6.59309 0.124497
1 5.93019 3.33954 9.45531
1 6.71884 1.95639 6.01293
1 6.9272 2.3991 7.02799
1 3.10874 1.10457 8.09434
1 7.10705 7.15185 9.20697
1 4.53956 1.68788 6.99493
1 4.57656 5.57861 6.70726
1 0.826359 4.26493 9.157
1 3.49079 6.34152 8.90705
1 5.72118 3.25471 3.20892
1 6.45941 5.12359 5.75747
1 8.46843 1.33874 2.9634
1 1.08847 5.86996 4.63839
1 7.15189 8.33745 9.75496
1 3.99584 1.1425 8.3362
1 5.97626 5.15019 3.37162
1 3.14426 5.97459 6.21058
1 7.32084 1.8274 3.19168
1 3.01388 7.20354 1.35835
1 8.76057 3.10114 7.26303
1 9.41573 1.67445 9.00173
1 1.9188 7.35893 5.41161
1 8.02874 0.650192 2.30061
1 5.44783 1.00735 1.74459
1 5.17894 1.10974 0.8314
1 4.06556 7.23937 1.29179
1 6.21023 0.634995 2.28576
1 6.35536 4.27501 7.4055
1 -0.390413 7.23718 1.29557
1 -1.16219 7.49271 6.09219
1 -0.771727 7.63964 9.70305
1 6.93036 0.91543 6.16471
1 1.90301 6.30041 9.17677
1 2.50517 2.09284 8.45482
1 -1.09228 5.48572 3.3693
1 1.52897 3.34469 5.80937
1 6.96851 3.51089 9.10435
1 1.65384 1.03356 7.22109
1 2.08353 1.2944 8.11591
1 5.65436 4.05531 1.19595
1 0.703702 5.28694 2.8984
1 6.83912 1.57967 0.924664
1 7.8761 2.06443 9.1157
1 4.23193 6.95282 7.63711
1 6.13736 3.71486 8.38978
1 6.07278 2.70049 6.58421
1 4.4043 1.91974 8.94993
1 5.43075 5.02633 1.13258
1 6.2737 2.63843 0.660876
1 1.21122 7.30605 1.1439
1 3.87444 4.59966 1.99653
1 2.2235 5.46304 3.50622
1 3.01472 4.67022 8.79243
1 9.15444 3.1414 8.18864
1 4.67031 0.912793 2.6027
1 6.14737 4.9718 4.43221
1 4.18232 8.38308 8.78708
1 7.2722 6.733 8.39103
1 8.40446 3.66682 5.09464
1 3.25548 3.93638 5.50521
1 2.70059 1.48606 2.13247
1 0.734907 8.57686 9.60063
1 2.59876 3.87038 7.2513
1 1.65534 3.67443 6.74965
1 -1.31197 6.652 5.29003
1 1.70772 2.08015 7.45983
1 4.55258 5.32474 5.57753
1 3.56616 1.68651 7.28538
1 4.89203 2.0214 1.07162
1 4.68726 2.5648 3.90708
1 7.07976 1.32885 7.12152
1 -0.246896 6.99896 5.62031
1 3.92484 4.85607 3.92714
1 2.44405 3.46011 4.04623
1 5.45234 4.30495 3.12572
1 6.47173 3.39361 1.77777
1 -0.185529 5.08579 3.67741
1 0.449151 1.70662 2.59015
1 1.40176 3.65733 8.45932
1 6.17382 6.60642 3.8289
1 0.43127 5.3096 8.17644
1 4.97613 3.78132 5.40745
1 3.60054 7.33911 8.50501
1 1.77021 5.12035 5.53575
1 0.0529089 3.91269 0.875286
1 -1.25202 5.11965 1.1154
1 4.66623 3.45591 1.14165
1 6.52849 3.82402 4.67891
1 5.01316 5.06343 9.16958
1 6.10391 1.73395 6.76826
1 7.85942 2.32352 1.46852
1 2.5936 5.7867 5.29026
1 0.407514 6.66041 4.61205
1 4.64566 3.68279 3.57014
1 4.38508 5.88671 7.79769
1 4.46656 6.6515 8.67445
1 0.421483 5.83394 3.70754
1 -1.84914 7.6447 4.60428
1 3.52017 3.56381 8.636
1 2.10989 2.91274 0.13055
1 7.22499 0.935124 2.75997
1 2.71297 4.40786 3.49237
1 5.12728 3.8434 9.78405
1 5.59127 1.36845 2.77797
1 8.22563 2.2512 2.75174
1 4.0832 6.37674 6.33509
1 5.18493 0.957755 6.67631
1 4.34801 7.98093 4.80833
1 2.33719 1.70373 0.187483
1 3.67053 5.57562 5.21152
1 4.28922 6.31303 1.63718
1 6.56448 2.83857 7.85677
1 1.88364 3.92534 0.68859
1 5.12297 5.20698 2.66654
1 6.30784 2.57296 4.96555
1 1.37998 6.85022 0.21247
1 -2.99486 7.56612 1.4462
1 5.12885 3.6012 6.5593
1 3.8758 0.38858 0.774484
1 4.74908 7.6151 8.32882
1 -0.0385894 4.74593 2.60557
1 5.88162 7.56093 8.21294
1 -0.470303 6.23777 0.879628
1 2.28116 7.0889 7.21285
1 -0.545945 5.98309 8.16558
1 7.83365 3.76561 6.99977
1 0.728276 5.09959 5.3944
1 0.965258 1.29862 0.26314
1 1.25909 4.6883 8.06197
1 1.41127 6.6001 7.7764
1 -0.289863 4.76222 5.45691
1 5.00931 4.38862 2.11779
1 -1.25314 6.2083 1.52766
1 7.9008 3.1073 8.99296
1 3.63658 3.01459 1.04522
1 2.47984 4.42466 4.4716
1 3.24306 0.863345 1.30437
1 4.01971 4.42734 0.126052
1 3.29858 4.45933 7.71441
1 -0.895519 5.7508 5.28637
1 0.544641 3.95034 5.31513
1 6.31303 6.65762 8.59564
1 0.318297 4.69706 1.44225
1 5.28138 5.9013 8.50436
1 -0.256002 6.91686 8.53297
1 2.97547 7.23219 2.92617
1 3.08809 7.94949 9.17076
1 2.18317 5.28998 0.718064
1 6.02197 3.87908 6.48712
1 1.05301 0.906668 2.94557
1 -1.23731 7.44119 0.707608
1 5.33387 3.018 8.29786
1 6.88788 2.98745 5.91912
1 4.18153 8.65615 9.74025
1 4.18148 3.39485 6.67637
1 2.99133 4.89627 5.46683
1 0.607848 7.39132 2.0611
1 4.6001 1.61063 4.20095
1 7.30014 6.06131 7.62554
1 3.63091 2.8392 4.5405
1 5.04309 4.06523 8.51892
1 3.91195 7.67439 3.52581
1 3.77836 7.51994 2.175
1 5.0066 4.9349 3.81974
1 -0.0820472 1.42975 0.681347
1 4.93158 5.07413 0.192029
1 5.54587 5.59601 7.35013
1 0.346642 2.38255 3.39332
1 1.33539 0.496526 0.857409
1 2.7153 4.26041 2.16478
1 9.40909 2.38144 9.85868
1 4.80699 3.22209 7.42943
1 6.11499 4.2596 9.30787
1 2.93355 2.56404 1.84069
1 4.43454 3.70816 2.50138
1 3.22031 6.78665 5.59822
1 5.1969 6.75399 3.52682
1 5.08867 6.54932 4.59852
1 3.04114 7.82955 5.26743
1 1.77768 5.89825 2.73793
1 -0.1637 3.27193 3.32077
1 5.33009 5.96626 9.43546
1 3.38724 5.01238 3.09181
1 0.776693 6.43695 8.5547
1 3.10115 5.28318 4.33395
1 7.50271 4.24588 3.15403
1 -0.288365 5.39665 6.21797
1 0.797472 2.1877 1.62002
1 8.44609 1.49087 1.8343
1 0.925557 4.61698 7.07533
1 8.88487 3.25725 9.9995
1 0.475375 3.55944 4.42337
1 6.85726 3.44556 6.91267
1 6.25029 1.50023 4.87509
1 7.33372 3.17732 0.970281
1 4.96805 2.59666 6.62343
1 0.47125 7.62637 6.14753
1 0.333687 6.41116 6.55482
1 2.74352 3.66175 1.3425
1 -0.395359 5.46521 1.73893
1 6.0079 4.91868 6.69188
1 5.15708 1.28535 4.88471
1 7.47247 4.81223 5.78319
1 2.26221 6.56105 6.18065
1 0.234272 7.68324 3.00207
1 8.3568 0.628197 1.28105
1 0.803562 5.48729 1.8219
1 3.44007 4.10491 6.51823
1 7.31053 3.30439 5.01021
1 1.76799 0.954406 3.60814
1 5.47402 6.35825 1.50943
1 2.77573 6.10129 1.41503
1 -0.97915 8.54425 8.99641
1 -0.47731 6.23209 3.60813
1 3.18097 6.98982 3.87627
1 7.53374 4.41398 7.70842
1 8.91356 0.48515 3.25775
1 6.78384 4.84067 2.80961
1 2.69043 7.47856 6.2157
1 4.32528 2.9387 8.45552
1 8.23345 2.00623 5.0581
1 -1.14496 7.1399 1.91488
1 2.62942 6.43766 9.85005
1 0.825949 6.33388 2.9115
1 7.18039 4.7954 4.0325
1 0.8939 2.69335 7.25963
1 -0.982215 4.07219 0.748128
1 9.84514 1.1188 8.12844
1 6.45613 2.43144 2.4523
1 3.53299 6.35937 0.91585
1 7.32144 5.5429 6.50788
1 1.41466 1.24137 1.95714
1 2.47876 1.71041 3.77444
1 -0.59215 4.30741 1.64938
1 6.12652 3.07422 4.1159
1 0.799575 7.22724 7.18853
1 2.71085 1.71362 1.17916
1 6.79519 4.48486 8.3669
1 -0.670457 3.73592 2.57443
1 0.247649 3.89067 2.1138
1 0.752711 8.21462 7.34887
1 4.98107 7.17678 2.00867
1 0.273662 5.462 7.04154
1 9.64255 3.10975 9.18885
1 4.89109 6.47944 7.02296
1 3.78144 2.54995 2.39338
1 1.17812 7.79787 4.54173
1 2.9155 6.13741 3.16995
1 8.04984 4.58873 6.57756
1 1.59756 7.75662 7.67484
1 8.75673 2.60306 9.09269
1 1.43328 6.10965 3.6903
1 7.6329 2.35007 0.361522
1 4.27414 6.78214 5.1996
1 6.9457 6.12285 9.1924
1 0.546255 4.27928 3.28172
1 0.664149 1.14364 1.28638
1 1.0349 5.38253 6.31199
1 7.92258 2.38771 6.73547
1 -0.0961922 6.82372 2.54253
1 2.72142 7.43121 9.9998
1 3.6196 7.21189 9.53656
1 4.29172 4.23285 5.99188
1 4.01461 1.24656 6.22164
1 1.94402 1.80657 6.49558
1 5.37999 1.30979 7.66079
1 5.38808 7.32292 9.90573
1 5.07644 3.89156 0.273944
1 5.02206 2.72361 9.36465
1 8.75679 1.62897 9.70872
1 6.08925 7.05119 4.77426
1 4.28793 4.64056 2.9644
1 0.0887095 7.57458 4.87457
1 0.237884 4.56547 6.32605
1 2.80117 0.811874 0.406974
1 5.02545 2.80367 5.73839
1 6.37378 1.78303 7.96655
1 5.78007 2.10502 5.78707
1 0.246748 6.9292 9.4382
1 2.35641 4.62356 6.30896
1 5.11445 2.85356 0.212908
1 -0.966531 4.99796 2.43392
1 0.966727 5.2808 9.02356
1 7.28502 4.09339 1.88577
1 1.64757 7.04526 9.82217
1 2.78352 4.46425 0.301801
1 6.66566 4.01707 5.64705
1 2.99409 1.06623 3.19906
1 1.298 4.29277 6.08061
1 3.47123 5.45645 8.2202
1 4.31433 3.67865 4.56461
1 3.16879 0.777163 5.68728
1 2.6348 8.64904 9.79025
1 7.19428 2.48047 8.5019
1 2.60033 3.19625 9.66204
1 5.53232 5.43978 5.23367
1 3.77861 1.77562 3.32553
1 1.91812 1.80242 2.75666
1 2.52511 5.33011 8.00698
1 6.89149 7.49856 6.82022
1 0.97458 6.18129 9.61244
1 2.89791 5.31489 2.25078
1 1.34235 4.49555 4.79932
1 2.94303 0.491334 2.23062
1 4.9519 6.2415 5.87508
1 3.95971 7.6833 5.71479
1 6.31496 5.37544 9.03309
1 0.838029 7.07751 5.51644
1 -2.79794 6.759 0.652327
1 8.12787 2.06392 3.8297
1 7.22944 3.69007 3.88598
1 -0.483107 3.07894 0.653836
1 1.43887 6.24584 5.59641
1 1.06141 5.02379 3.80749
1 6.49205 7.98721 9.0926
1 7.00293 5.27905 4.93155
1 6.78185 2.45451 1.51782
1 7.90033 5.34196 9.47469
1 1.21225 2.51005 5.07787
1 4.66845 4.50827 1.09037
1 0.223835 6.46008 1.751
1 1.87368 4.86897 7.21794
1 4.32664 5.50381 0.944703
1 5.97317 1.19553 8.6477
1 2.33773 4.55479 9.92634
1 6.9996 4.51991 6.61016
1 3.40669 1.93625 0.424753
1 -1.00161 7.58903 5.09436
1 6.37429 0.969347 3.39434
1 4.82666 1.75327 5.92552
1 2.04554 5.62607 6.4165
1 4.00028 5.86124 9.79882
1 6.43524 1.63608 1.89965
1 1.77868 4.54524 1.66926
1 1.45288 8.45785 8.71849
1 4.15037 4.86619 7.32272
1 2.00262 7.36329 3.96139
1 1.35178 2.23372 0.49223
1 6.30129 6.08732 4.92415
1 0.445033 3.10555 1.37142
1 6.79878 6.13544 5.7981
1 2.85247 5.67497 9.25006
1 3.53283 2.82456 9.44411
1 5.81986 6.63447 5.60686
1 4.92001 2.77123 2.88466
1 1.04684 3.9439 1.24405
1 5.94367 1.09836 5.72338
1 1.09137 2.36833 6.16788
1 3.90378 7.3003 6.67555
1 3.83646 0.879901 3.92932
1 7.71662 1.56876 7.95948
1 2.57859 1.63356 5.65686
1 2.68571 2.6696 7.50493
1 0.863202 7.04831 3.76514
1 4.0276 2.3999 6.21611
1 3.66963 4.93531 9.67648
1 1.20408 4.82155 9.86527
1 0.973435 7.68048 9.29815
1 5.50347 2.17316 2.15325
1 -1.78083 5.45783 1.98839
1 1.92267 4.78484 2.72253
1 3.59377 4.16358 1.13936
1 5.11055 4.69718 6.22039
1 2.00776 5.34933 4.46761
1 8.55919 3.73232 6.16502
1 4.66896 6.68298 9.69055
1 5.40391 7.00139 9.0014
1 2.6838 7.04994 9.01602
1 8.76926 3.71589 9.04793
1 1.66503 3.82338 2.92171
1 5.25268 3.05401 4.67797
1 3.58751 5.53943 1.62553
1 4.88094 6.35424 2.55253
1 9.20464 1.92968 5.49908
1 3.23527 2.99593 6.67422
1 5.53699 1.09431 3.96178
1 2.60205 3.30792 5.02446
1 1.5635 5.70229 8.24879
1 2.99985 3.4758 0.165706