666
Atoms. Timestep: 1000
1 4.15017 1.19633 2.09987
1 0.704004 1.42142 13.3534
1 1.97782 2.72306 12.6408
1 0.0530548 4.78477 2.00432
1 3.84377 5.52833 12.1864
1 2.07606 4.76241 12.693
1 3.66109 5.5026 0.69446
1 3.99544 5.11025 2.35566
1 2.32641 3.01786 7.1249
1 2.22269 3.1251 2.04601
1 4.77003 3.48066 17.0825
1 3.61188 5.76947 14.922
1 2.61662 5.13373 12.0042
1 0.313972 2.85307 12.125
1 3.48068 1.27252 0.530805
1 3.87382 4.8457 16.098
1 0.500286 1.65579 2.37438
1 2.94265 0.936604 17.7981
1 4.79477 4.07543 5.59408
1 5.38954 5.36975 1.09478
1 0.127117 2.00969 10.6855
1 5.6564 2.04352 8.88427
1 0.429223 4.77495 14.2474
1 2.98257 5.48603 8.80906
1 2.48223 1.62901 8.83873
1 2.4722 0.345225 13.3969
1 0.324552 2.24616 16.9559
1 2.13671 1.96604 17.8341
1 1.84666 5.65554 10.3183
1 5.11646 5.20135 2.1388
1 0.267253 1.41917 16.2139
1 2.88011 2.01219 4.24537
1 4.73509 0.155402 0.643096
1 1.38953 4.77075 6.35261
1 2.27055 3.02514 17.653
1 0.666248 5.4579 11.2822
1 4.10596 3.87707 14.2855
1 0.0185151 1.05758 3.92806
1 3.65583 4.37645 3.23694
1 4.67096 4.80039 3.12186
1 3.60521 1.09139 16.2706
1 1.43217 5.32207 9.4476
1 5.26337 2.42594 3.3224
1 2.64055 1.93137 6.92024
1 3.22158 2.07701 6.11931
1 3.31598 0.0812412 1.69294
1 5.40394 3.94074 4.81472
1 1.52458 3.19059 3.98198
1 2.34345 5.67532 16.2749
1 5.75429 0.411546 1.06665
1 3.54333 1.56559 9.09296
1 1.86785 5.54474 6.8016
1 0.806046 3.58305 3.35842
1 4.21846 2.63764 12.8223
1 5.03583 4.27059 10.4937
1 1.26417 0.306211 11.0314
1 1.13195 4.0755 0.769601
1 0.424726 3.99801 -0.045241
1 5.55278 1.55134 15.4388
1 2.56459 2.32921 1.30462
1 5.54962 3.62059 17.8772
1 3.83985 3.83585 1.20968
1 4.54769 1.87176 2.85738
1 4.20846 1.1667 8.18152
1 5.32118 0.72647 7.32761
1 0.751937 3.78554 11.8669
1 2.88719 5.2983 7.72681
1 0.363456 0.96666 17.2697
1 1.216 2.18054 8.37085
1 2.94731 1.60731 16.8161
1 0.0397588 5.27359 3.92083
1 5.08834 2.59429 1.19028
1 4.78682 3.92357 0.512368
1 0.151268 3.89408 12.7769
1 0.247492 2.48849 5.51754
1 1.85624 1.36259 4.96024
1 1.21663 3.99444 4.65542
1 5.3194 5.21887 17.4303
1 1.23932 5.82781 16.8725
1 0.509292 2.688 6.6133
1 2.63655 2.11399 13.3391
1 3.97565 3.29793 2.48454
1 2.68888 3.28786 8.4153
1 4.11628 0.674985 1.17489
1 4.10725 0.831598 7.2239
1 1.56044 1.98026 13.2458
1 1.12788 2.58657 11.5553
1 5.41378 2.92303 7.16098
1 0.392272 4.01538 8.96859
1 1.68995 2.40394 6.40147
1 1.18482 0.0111868 0.62414
1 0.197696 3.74394 14.4747
1 1.15433 1.44656 15.322
1 2.1397 0.0537394 12.5135
1 1.72743 3.78329 13.3816
1 1.24469 4.23123 14.6116
1 2.86785 3.84992 7.53094
1 1.15123 1.87072 3.73285
1 0.361321 5.91598 14.6772
1 0.536744 4.81171 9.60081
1 1.28314 2.30092 14.775
1 3.77422 2.98291 15.7254
1 0.641285 0.0570506 3.22394
1 5.91183 4.85031 8.79021
1 3.59748 4.54047 11.5639
1 0.420456 1.01662 10.7715
1 1.99516 2.32644 16.9146
1 4.98097 4.93447 4.6971
1 2.70994 0.609816 16.4924
1 1.42278 1.12159 0.499367
1 4.11538 2.97614 0.776827
1 4.16965 5.45213 13.1409
1 1.59538 2.23958 2.08336
1 0.193492 2.51978 7.63314
1 2.89449 5.78859 10.2678
1 5.02848 5.44754 3.82636
1 4.42291 0.90228 16.9892
1 4.1545 0.202614 11.5732
1 5.33528 4.3193 1.42985
1 0.330295 4.70659 12.1559
1 0.984355 2.18264 0.391207
1 0.30362 4.87594 0.97008
1 0.0809871 2.66797 2.66619
1 2.73768 3.69274 12.8608
1 1.4706 0.513166 3.76226
1 -0.0130029 0.0959539 10.6983
1 1.09666 3.07461 16.1835
1 3.93394 4.55237 5.00036
1 2.79494 0.340101 11.7631
1 4.94576 1.23608 12.901
1 2.08575 1.23618 17.1122
1 3.96953 5.26526 17.5668
1 3.50448 1.81982 5.08235
1 1.45906 5.85586 8.61327
1 5.64098 5.15452 2.99728
1 0.351523 0.74542 0.149754
1 3.27161 2.82105 12.7615
1 1.28959 0.408275 13.5772
1 5.08296 0.249773 11.2729
1 0.281461 1.63382 14.5823
1 4.96547 0.806135 2.65578
1 1.69758 0.792778 8.65588
1 4.18332 4.54977 9.71705
1 3.75689 1.56412 10.1382
1 4.84606 4.36045 17.6594
1 3.83183 3.53274 3.71879
1 2.36316 1.05777 7.94904
1 5.4112 5.06964 15.1283
1 2.77359 3.63568 3.63941
1 2.63687 2.9458 4.40572
1 3.7779 0.156427 8.87263
1 5.65331 0.243316 8.09794
1 0.951641 1.11495 11.9515
1 1.29807 3.69053 17.0699
1 2.29247 5.13237 17.2342
1 1.97226 1.89227 10.2432
1 3.86506 1.7415 3.80171
1 5.1874 0.937183 4.61294
1 4.4573 0.534199 15.8292
1 4.06876 4.15974 10.6881
1 2.89986 5.4637 14.2562
1 4.15172 5.14685 8.84176
1 5.44075 1.56112 17.1372
1 1.04959 0.870815 5.56621
1 0.977113 3.11001 12.9537
1 4.48917 4.20925 2.20052
1 0.892609 3.68131 8.1051
1 2.12329 5.00217 8.63842
1 2.92059 4.94535 4.99686
1 5.02713 0.0691373 8.89321
1 4.77692 2.10092 11.3588
1 2.84136 1.013 4.7303
1 2.51809 2.80909 14.6845
1 0.420947 1.94423 11.7037
1 1.12176 4.66094 8.6519
1 4.3214 2.03765 6.20251
1 5.79673 5.43001 7.40204
1 4.5942 1.37845 15.1334
1 1.89498 3.24247 5.00981
1 3.74757 4.33269 16.9441
1 3.9646 5.32714 7.85157
1 2.49895 0.705244 3.01897
1 3.81858 2.15484 16.4205
1 2.46095 0.283285 7.12334
1 1.20393 1.60846 17.5761
1 5.2146 0.372614 15.2651
1 5.76689 5.87117 9.80536
1 0.510704 4.56769 3.06719
1 1.75555 3.21465 15.1984
1 3.31911 4.54885 12.7161
1 5.32097 0.880345 17.9225
1 4.27018 3.74356 16.2768
1 5.19106 2.5077 10.5095
1 0.769691 1.67492 10.085
1 0.923005 5.45865 12.8429
1 0.3924 0.791263 14.1904
1 2.08264 1.0076 14.747
1 0.176028 1.65994 4.85238
1 5.13443 4.11469 14.5803
1 2.64661 1.17251 12.7101
1 3.84125 3.76222 13.2373
1 4.03739 2.47446 8.30244
1 0.331838 5.81316 13.5801
1 4.86819 1.36564 3.62064
1 4.59516 4.62843 7.37757
1 5.66194 0.911337 8.88512
1 3.43593 0.527717 9.80748
1 2.75598 3.02085 9.48545
1 4.71859 3.44856 1.54095
1 1.42387 3.1576 14.248
1 4.69624 0.495198 13.7088
1 4.90639 2.87541 16.2356
1 5.60286 1.39804 11.6798
1 4.63266 1.92816 8.86103
1 0.3921 5.06178 17.9181
1 4.36536 0.310467 6.21134
1 0.328114 4.3432 15.2611
1 1.17078 3.09227 5.7737
1 0.320279 3.29217 11.0084
1 4.05012 2.32453 17.9886
1 4.62428 5.25554 0.291673
1 1.19597 1.97162 16.421
1 3.92651 5.94703 10.5881
1 1.21864 1.26324 7.77933
1 4.75107 1.51006 13.8976
1 4.68705 3.93322 3.94801
1 3.2478 1.00267 2.37004
1 2.02996 5.33876 15.4003
1 1.39173 4.45179 17.8698
1 3.36796 0.0446429 15.8992
1 4.61169 0.144004 5.19275
1 4.23966 5.85401 16.6553
1 3.23573 1.17601 13.6224
1 1.49281 5.05179 0.759566
1 3.08411 4.01883 10.8898
1 1.15255 2.63114 17.4958
1 3.18847 3.69215 16.4384
1 4.57619 1.85407 4.5023
1 1.89277 0.487933 15.8706
1 5.81943 0.985061 1.87713
1 3.79615 3.32718 11.174
1 1.03062 1.16728 4.37442
1 1.33129 4.24405 9.63299
1 4.65807 0.106704 17.7315
1 1.12428 5.13904 15.0248
1 4.85188 3.43949 10.923
1 2.93991 0.737007 14.4281
1 5.09297 5.20964 8.2831
1 4.31238 3.14509 6.07434
1 2.0472 4.05573 10.3972
1 4.23392 2.60583 5.3081
1 0.212648 4.80826 13.2472
1 2.37519 4.22567 2.348
1 1.88161 1.83043 12.1852
1 5.33358 0.916912 16.3367
1 5.94069 0.984748 2.9016
1 0.992585 2.15852 12.4506
1 4.73907 5.77622 7.02643
1 4.95532 5.49933 12.1606
1 2.34859 4.95222 9.77009
1 4.64949 0.344897 3.9719
1 3.92831 0.933825 4.45133
1 4.00136 0.879236 3.10368
1 3.41204 5.02295 1.47655
1 4.33573 1.20112 5.32133
1 3.39177 2.81402 13.9138
1 5.90159 2.93764 4.61422
1 2.20976 4.78913 1.5437
1 0.390497 0.244588 6.02554
1 1.29545 4.97792 12.0268
1 1.79244 4.73859 16.3572
1 4.01944 1.06065 13.021
1 2.28964 4.06159 0.233328
1 1.33386 5.3082 3.43729
1 0.68058 3.21999 15.3093
1 3.45599 5.61485 5.73749
1 1.94657 1.53599 15.9977
1 0.753553 4.0298 6.29967
1 2.15565 2.28463 11.2782
1 5.55195 4.17348 9.5488
1 4.5062 2.30861 15.3854
1 2.11336 1.23234 13.7536
1 5.38943 1.12334 14.5544
1 0.914259 1.98634 1.46521
1 3.89468 4.46165 0.216056
1 1.8986 0.827275 11.8291
1 1.63376 3.98836 5.64948
1 3.59852 5.06509 10.6009
1 4.44826 1.29148 18.0585
1 4.265 1.954 0.809946
1 5.19163 4.96041 6.45017
1 4.60529 2.21436 17.0948
1 3.57845 4.74457 13.8633
1 3.87541 3.00255 16.979
1 4.42354 0.946623 10.7241
1 0.50056 4.48921 11.2197
1 2.79625 1.10778 15.5005
1 3.35644 4.19899 2.16908
1 3.49689 2.12529 2.66659
1 2.31793 5.12687 0.0997175
1 3.30493 3.70116 4.63762
1 2.37766 3.04866 6.02182
1 5.57311 3.98618 13.6814
1 2.88833 2.77656 16.6782
1 5.207 2.07108 14.5459
1 3.65317 0.539806 5.45091
1 3.99234 3.72846 7.0466
1 5.32031 -0.0235251 14.2704
1 3.02984 5.16813 15.4978
1 2.43161 1.14928 9.73274
1 4.65579 4.62614 13.6852
1 1.19604 0.615926 6.58675
1 5.49893 5.031 14.0469
1 0.246005 1.52458 5.85695
1 1.97771 3.89608 6.58944
1 4.85915 3.52788 3.00485
1 1.21347 0.0890753 11.9733
1 5.30546 2.00323 5.43251
1 2.95358 2.02173 9.71298
1 3.08956 1.43988 3.29152
1 3.7676 1.49848 17.3486
1 0.339594 2.94321 0.056286
1 4.80867 4.29749 8.70933
1 0.442927 3.88211 1.43015
1 2.37014 3.05851 13.5866
1 2.85953 2.99339 11.7999
1 5.25968 1.41229 10.8032
1 5.74828 3.36722 10.1558
1 2.58958 0.0555932 15.158
1 5.93807 2.35516 0.70367
1 2.21484 1.93888 15.1166
1 0.523835 2.20489 15.5372
1 3.5583 3.2235 10.1162
1 4.95053 1.70089 1.78198
1 2.86856 1.82779 14.2931
1 3.50138 1.89369 1.51098
1 3.72691 1.8691 7.02701
1 0.763502 4.93567 15.9591
1 1.98561 2.23637 14.058
1 5.21965 0.711878 10.0222
1 4.32167 4.71198 12.4034
1 4.29514 5.13692 11.3157
1 0.290761 4.15089 10.3448
1 3.06479 3.76997 6.40335
1 2.18861 2.08868 7.88176
1 5.13589 3.12482 5.30508
1 2.41171 5.55834 5.6406
1 4.36437 3.53131 4.80919
1 4.74533 4.44728 15.6947
1 4.28274 2.69438 3.28489
1 1.73108 3.06276 7.98826
1 4.70907 0.990735 11.785
1 2.26314 0.139902 4.28843
1 5.60038 3.69746 11.9503
1 4.64724 1.80368 7.3752
1 2.9202 2.04681 15.885
1 0.429795 2.93603 8.77451
1 0.400457 4.60099 7.90281
1 2.05597 3.62585 16.3363
1 3.66727 3.38425 8.04689
1 2.27211 4.27936 15.4856
1 0.059233 2.96946 16.2031
1 1.88701 3.1456 9.89088
1 1.39152 3.33098 0.102603
1 5.62222 4.79443 16.3014
1 1.56036 0.984055 12.8156
1 0.308643 3.34316 17.2147
1 0.460149 3.80405 2.40742
1 5.02692 3.79677 6.9037
1 3.29167 3.00738 1.5253
1 5.6851 3.49134 8.33476
1 3.84766 2.58526 9.30813
1 4.57876 3.49559 15.2816
1 3.50896 0.0416139 7.2236
1 3.66975 1.05941 11.9841
1 4.53159 0.00030189 9.77117
1 1.78051 1.53445 3.03312
1 2.27738 3.97272 9.09532
1 1.84961 4.08795 7.91861
1 4.93401 2.46514 9.61369
1 4.54071 4.10171 11.7018
1 0.855356 5.61055 6.99877
1 4.25154 2.53087 1.78206
1 5.15829 1.33352 8.14116
1 5.62854 5.83903 0.10753
1 5.4914 4.55459 11.4395
1 5.22682 5.81505 16.3285
1 3.70342 0.219692 13.722
1 3.42649 2.88323 6.70899
1 3.66631 4.06584 15.548
1 2.83456 4.66677 16.3636
1 2.41471 4.67645 6.14415
1 0.489089 2.92746 1.28137
1 2.8631 0.739894 8.88302
1 2.70708 3.22 15.721
1 4.98272 0.445002 1.66395
1 3.07987 2.29744 17.6267
1 5.63268 0.198267 17.2191
1 5.53464 1.8288 2.57371
1 3.82614 0.415406 0.116928
1 0.176152 1.34041 7.91852
1 0.536188 1.52868 9.06011
1 5.06608 1.45073 6.42811
1 0.737862 3.8153 13.673
1 3.19678 2.85095 5.33276
1 0.220104 1.03718 6.68825
1 4.07354 3.45871 17.9838
1 3.10079 5.89541 4.83732
1 4.42792 5.61426 1.51553
1 2.00817 2.35886 3.59706
1 0.559218 2.7335 3.8252
1 2.68486 4.11613 11.8404
1 1.15273 5.6124 14.0852
1 1.87339 4.92509 14.4629
1 4.61706 3.57453 9.86571
1 0.0390935 3.03783 13.7212
1 0.0489411 5.12494 10.5374
1 5.06338 1.36893 0.793208
1 4.50444 0.238533 7.92237
1 3.75178 3.67103 9.16357
1 4.22072 2.72528 7.36617
1 2.44402 1.56759 0.568036
1 0.283558 0.469412 11.6935
1 2.89633 3.94277 9.88092
1 2.86407 5.14821 2.43999
1 4.37473 2.6763 14.4425
1 2.24759 2.63409 0.431435
1 3.09525 2.69936 3.49491
1 5.61099 5.87534 4.66757
1 5.51949 4.35947 3.62939
1 5.08188 5.1375 9.58237
1 0.604551 0.0497932 4.17745
1 0.520042 3.98979 16.3112
1 5.30062 4.61188 12.6795
1 3.17944 1.6153 8.00214
1 0.244676 3.51071 7.23664
1 3.10367 5.80185 17.9287
1 0.579192 0.456604 2.25287
1 1.43975 5.84943 4.71367
1 1.3932 1.03707 2.23337
1 0.564285 -0.0287805 17.5923
1 0.160837 0.749038 15.3235
1 2.45353 5.57963 0.992274
1 0.879937 2.31581 13.8454
1 3.71243 1.65587 11.1933
1 3.04254 0.419131 0.732007
1 1.44961 0.974872 10.2828
1 2.95686 4.33764 14.726
1 0.940234 4.71347 5.48719
1 5.96615 1.28837 12.6984
1 1.5355 0.0956461 2.69507
1 4.37712 5.42035 14.2376
1 5.44679 0.101101 6.50248
1 1.76885 3.88768 1.54792
1 1.23118 1.35267 14.2484
1 2.05135 5.47425 13.4335
1 1.29368 4.68781 13.6016
1 4.633 3.12491 11.9376
1 2.20838 0.0476608 9.4907
1 0.754335 3.40857 9.84012
1 2.88025 1.01216 1.44313
1 5.63233 1.83589 7.18383
1 2.14379 3.87928 14.4599
1 2.50995 4.5495 13.6195
1 1.28982 2.55394 10.5445
1 0.162989 1.85988 17.8885
1 2.98611 3.38745 2.65687
1 1.08375 4.66713 1.70844
1 2.05527 0.0459605 14.314
1 5.41063 2.64154 15.3658
1 1.42983 1.485 11.0852
1 3.32886 2.32715 0.561349
1 5.66941 0.235443 3.59961
1 2.00774 2.57797 8.91426
1 3.19471 0.511426 3.76735
1 5.01325 2.7518 2.36375
1 3.2128 3.58473 0.509234
1 5.69583 3.3609 1.983
1 5.78375 1.56793 9.82068
1 5.58063 2.1595 16.3374
1 3.01516 3.79214 13.9328
1 4.49785 5.13983 5.67878
1 4.44019 0.260345 12.6041
1 1.3713 3.3884 8.89941
1 1.06807 2.42751 9.4544
1 5.83974 3.371 6.16992
1 4.06564 4.73687 14.9679
1 1.97956 3.30358 3.11414
1 4.6956 4.791 16.7842
1 4.10411 0.242137 2.31495
1 1.25587 3.95613 15.6475
1 0.290861 0.411103 16.4469
1 2.615 4.0959 5.40258
1 0.253635 1.87509 3.38004
1 1.84639 5.04501 2.66094
1 3.4747 0.498615 17.0848
1 3.25083 5.40071 16.8071
1 1.18943 2.16212 5.44719
1 1.30488 0.538737 9.48619
1 2.7863 3.9402 1.39241
1 1.30765 0.394401 14.8619
1 1.15781 3.19712 2.01715
1 0.382188 5.18609 6.24987
1 3.8064 2.46381 11.7481
1 2.04632 0.434064 5.26691
1 1.44464 0.647773 17.653
1 2.20431 0.566732 0.250076
1 5.68055 5.52286 11.4457
1 4.42853 5.57685 15.4407
1 3.34602 0.689307 10.98
1 3.82613 1.38078 14.4702
1 4.67722 1.57138 9.86915
1 4.7345 1.73755 16.1968
1 5.42931 0.74592 5.66539
1 2.81037 1.52346 10.6559
1 4.32359 4.42411 6.44133
1 2.18801 3.3078 11.1287
1 1.4144 4.10559 2.61768
1 0.380454 3.70204 5.28074
1 3.10988 1.07036 7.05435
1 3.69713 5.43859 9.72963
1 0.040804 4.39654 17.1982
1 1.95874 2.55256 15.9231
1 4.17345 4.76851 4.01873
1 5.60756 3.63745 15.377
1 5.78762 5.92407 2.22435
1 4.72393 3.77592 12.7631
1 3.0535 2.4177 8.68699
1 3.4901 3.332 14.8328
1 5.59782 2.71346 11.4003
1 5.70346 0.584285 13.4534
1 2.86593 5.41727 6.64478
1 3.19289 5.44882 3.92521
1 3.1175 2.63248 7.66632
1 1.86449 1.53312 1.38144
1 5.48451 3.2216 9.25277
1 5.85441 4.41498 6.83723
1 5.40794 3.76527 16.3612
1 3.64862 3.61514 12.2087
1 0.322318 3.86835 4.22148
1 1.77258 1.45961 5.97899
1 1.84514 0.495046 1.15735
1 2.36491 2.08799 5.46168
1 5.49518 2.59243 17.3475
1 3.91211 2.00023 13.6028
1 5.35116 3.18492 14.5194
1 2.42534 2.39278 2.7405
1 0.54509 5.59738 8.06568
1 3.86296 2.75624 4.44992
1 2.5999 4.9 10.9227
1 0.770081 5.44197 2.48587
1 3.44816 4.62436 7.11334
1 3.33459 4.63373 9.32013
1 3.23955 5.56004 11.3379
1 2.66488 4.6262 3.30148
1 1.75054 2.23094 4.6381
1 3.23353 3.56517 17.4055
1 2.3427 5.71313 3.22124
1 3.21415 4.50833 4.1176
1 2.346 3.98796 17.191
1 0.520701 5.77904 1.43251
1 2.89171 4.34217 8.4353
1 3.63662 0.756497 15.2447
1 0.503802 5.67828 5.18876
1 0.508117 0.480098 7.47492
1 0.91891 2.79529 4.72268
1 3.06429 0.356217 6.30149
1 0.526314 0.484632 12.7676
1 1.23717 3.61799 10.8892
1 2.41917 1.51866 2.20143
1 3.88079 4.35323 8.39513
1 5.80259 1.70668 13.7755
1 2.18921 1.36979 3.91854
1 1.78445 3.68349 12.1947
1 4.92395 2.92705 0.0936626
1 5.69428 3.55952 0.818969
1 5.39698 4.25521 7.83396
1 0.12598 2.4593 9.69816
1 3.99389 5.49434 4.81809
1 1.20344 2.18618 7.33489
1 1.52131 1.52278 9.33513
1 4.47728 1.87373 12.3367
1 3.37215 0.573345 8.05196
1 5.01926 3.03566 4.10427
1 2.46177 0.0822611 2.11862
1 1.13192 2.5773 2.95478
1 0.791182 5.86741 10.1308
1 0.902045 0.795865 1.29323
1 2.27106 0.509026 10.8466
1 1.23943 0.937731 16.6681
1 0.574892 5.91803 9.18748
1 3.48548 1.85633 12.568
1 1.71192 4.37359 11.4055
1 3.27992 0.28387 12.7875
1 1.40063 5.11541 7.67404
1 5.48629 2.25673 12.2424
1 1.37649 3.15269 7.00458
1 3.27514 0.0548977 2.8526
1 5.50001 1.92972 4.12367
1 1.3504 5.71027 5.83083
1 1.09069 4.27492 12.7494
1 1.5125 2.91354 1.02608
1 5.52336 5.53632 5.61209
1 0.214276 0.659387 4.91624
1 1.59575 4.31791 3.68525
1 3.94545 5.35894 6.5476
1 0.989096 0.0392377 15.8717
1 3.76962 1.19439 6.23637
1 4.7712 3.18085 13.6107
1 4.43916 0.908758 9.1184
1 4.11116 2.42351 10.4469
1 0.623652 0.692483 8.53853
1 1.17621 4.83125 10.5594
1 5.47361 3.1743 12.8171
1 5.48289 4.26946 2.57118
1 1.76796 4.88836 5.05173
1 5.79641 3.43624 3.4232
1 5.01683 5.5397 10.5997
1 1.5051 5.53065 17.8901
1 4.90265 5.80968 2.898
1 2.25222 4.01484 4.43769
1 0.118221 4.76298 4.97122
1 3.04856 2.50554 10.7237
1 5.53689 4.62695 0.333905
1 0.205075 2.3607 13.0406
1 2.83664 1.59813 11.7379
1 5.1645 1.97374 18.1327
1 4.39363 0.418608 14.6828
1 4.55966 3.21436 8.87994
1 2.85874 1.186 5.82407
1 4.05016 5.67581 3.36987
1 0.280579 2.60301 14.6469
1 4.33259 4.67173 1.15853
1 2.96039 4.69995 0.699884
1 1.59966 5.62109 1.62514
1 0.208948 5.44355 16.9241
1 2.15799 0.137193 17.2154
1 1.00542 4.80056 16.9254
1 1.03741 4.28304 7.24444
1 2.25753 4.64519 7.26225
1 0.148869 1.39739 0.923813
1 6.00046 5.77001 15.63
1 1.01915 1.67369 6.49788
1 5.41442 0.467349 12.3631
1 1.4658 0.270428 7.60335
1 5.10272 2.24403 13.2939
1 2.07748 0.498973 6.26226
1 5.1342 5.70993 13.1331
1 3.1128 5.48204 13.2983
1 3.48289 4.64909 5.95028
1 2.34263 0.0319158 8.18994
1 5.83938 2.26847 1.75583
1 3.72141 3.71881 5.55543
1 2.00268 5.5584 11.2939
1 5.74734 4.44113 5.81235
1 3.46532 2.31457 15.0318
1 -0.00462232 5.54674 12.4688
1 0.887941 1.1501 3.14463
1 5.19308 2.39038 8.0662
1 0.353174 0.727618 9.71741
1 0.877872 4.92508 4.28741
1 1.89849 1.23627 7.10302
1 3.08923 4.6228 17.7584
1 4.69191 3.47675 7.92159
1 2.17143 5.02029 4.09005
1 5.15566 2.61656 6.29026
666
Atoms. Timestep: 2000
1 4.1527 1.16733 2.35213
1 1.03371 1.53944 13.5186
1 1.66499 2.68732 12.2249
1 5.9091 5.08348 1.85659
1 3.67258 5.69012 11.9854
1 2.24951 4.93236 12.8222
1 3.26927 5.61414 0.711892
1 4.29458 5.15451 2.61249
1 2.12093 2.56185 7.56268
1 2.17636 3.1813 1.87487
1 4.46338 3.26656 17.5311
1 3.48331 5.52759 14.8797
1 2.62705 5.17453 11.8781
1 0.382743 3.05509 12.2404
1 3.52084 0.795409 0.499649
1 3.76144 4.97514 15.9919
1 0.72462 1.82218 2.39797
1 2.85768 0.798973 17.7664
1 5.07174 4.18483 5.69275
1 5.33593 5.45517 1.02352
1 0.437198 2.32956 10.5817
1 5.62839 1.78045 8.76368
1 0.229736 4.89375 14.3574
1 3.12425 -0.00562202 8.47632
1 2.53006 1.38324 8.49239
1 2.69996 0.532397 13.5827
1 0.681656 2.46864 16.8683
1 1.87583 2.34316 0.0332715
1 1.8249 5.87217 10.116
1 4.88553 5.52626 1.94154
1 0.261583 1.4411 16.1742
1 3.40542 1.97115 3.93757
1 4.86728 0.576775 0.49849
1 1.41267 4.54248 6.76778
1 2.14408 3.4689 17.6935
1 0.721008 5.71522 11.3725
1 4.11047 4.15451 14.3693
1 0.293292 0.855416 4.03378
1 3.65146 4.53227 3.07209
1 4.66784 4.50974 3.24027
1 3.59305 0.96405 16.2989
1 1.54925 5.0944 9.52255
1 5.33408 2.28284 3.71997
1 2.74154 2.22255 6.8211
1 3.07344 2.03048 5.71187
1 3.22323 0.512418 1.52815
1 5.39283 3.90749 4.70545
1 1.61119 3.3273 4.02426
1 2.21767 5.86222 16.4389
1 5.8144 0.52174 0.896984
1 3.59334 1.66375 8.88473
1 1.9171 5.65359 6.98085
1 1.01094 3.51352 3.0574
1 4.24747 3.22323 12.8363
1 5.34465 4.16716 10.9085
1 1.2353 0.548006 10.979
1 1.23695 4.56476 0.502466
1 0.456966 4.23029 17.9693
1 5.70942 1.67505 15.4168
1 2.8453 2.45278 1.61269
1 5.35057 3.80873 17.7239
1 3.72553 3.97872 0.998237
1 4.5485 1.97618 2.86825
1 4.34196 1.49427 8.07539
1 5.23817 0.553477 7.16954
1 1.24548 3.50893 11.6895
1 2.84083 5.2271 7.71544
1 0.417743 1.15571 17.1183
1 1.56967 1.54355 8.12915
1 2.91871 1.72078 16.9798
1 0.247198 4.85988 3.7778
1 4.99606 2.50224 1.18823
1 4.66046 4.13069 0.420527
1 5.76902 3.861 12.9437
1 0.231991 2.38064 5.5383
1 1.7649 1.11837 5.01047
1 1.26615 3.66431 4.8418
1 5.38883 5.27502 17.3255
1 1.35904 5.58843 16.8816
1 0.400721 2.18222 6.52666
1 2.81842 1.8119 13.2729
1 3.98876 3.6285 2.92489
1 1.90646 3.31386 8.17512
1 4.19049 0.944425 1.33944
1 3.90386 0.91696 6.92652
1 1.92327 2.02584 13.1034
1 1.03049 2.5697 11.4978
1 5.47876 2.56218 6.95661
1 0.288654 3.84802 8.93789
1 1.75819 2.45878 6.55294
1 0.577285 5.95968 0.471802
1 5.91427 3.88395 14.2306
1 1.21955 1.30646 15.6581
1 2.18771 0.231563 12.8271
1 1.53966 3.95991 13.3417
1 0.886033 3.98672 14.492
1 2.71792 3.53095 7.58999
1 1.50859 1.38574 3.92144
1 0.106026 5.98166 14.568
1 0.319038 4.85968 9.78203
1 1.33933 2.38765 14.8851
1 3.72951 2.94936 16.1362
1 0.38607 0.0643975 3.2812
1 5.68881 4.69319 8.769
1 3.36189 4.57964 11.4436
1 0.170539 1.37665 10.5738
1 1.91906 2.68866 16.9976
1 4.86674 4.85398 4.94796
1 2.63264 0.809341 16.7443
1 1.65549 1.33887 0.335999
1 4.15608 3.01519 0.888929
1 4.07112 5.49147 12.9973
1 1.74897 2.11027 2.13944
1 0.121493 2.44392 7.77281
1 2.92369 0.448883 10.0978
1 5.24007 5.10262 3.94779
1 4.63248 0.847322 16.8516
1 3.87409 0.869846 11.8898
1 5.36832 4.50063 1.28103
1 0.409019 5.01131 11.9628
1 0.890389 2.33716 0.344651
1 0.368009 4.84296 0.741179
1 0.345369 2.67662 2.9607
1 1.78829 3.73455 12.4433
1 1.32454 0.410465 3.79979
1 0.136465 0.404489 10.8731
1 1.07055 3.25465 16.3507
1 4.00503 4.61335 5.43415
1 2.73165 0.151925 11.9147
1 5.29836 1.28692 12.9131
1 2.10993 1.54021 17.4478
1 4.26479 5.27579 17.4275
1 3.88362 1.83472 4.99
1 1.30808 5.72922 8.76715
1 5.76399 5.06748 2.89614
1 0.643271 1.03561 0.199862
1 3.2375 3.11924 12.7708
1 1.61458 0.597083 13.649
1 4.57487 0.0773685 11.612
1 0.551158 1.59099 14.7827
1 4.88906 0.595311 2.70145
1 1.74863 0.655965 8.5667
1 3.96288 4.35778 9.3489
1 3.40053 1.73227 9.92652
1 4.57136 4.33306 17.4858
1 3.60995 3.75172 3.85706
1 2.81372 0.917883 7.54107
1 5.4346 5.13182 14.963
1 2.60698 3.90181 3.52842
1 2.83726 3.20399 4.20159
1 4.08491 5.6747 8.86448
1 5.63136 0.124359 8.01309
1 0.827141 1.47031 11.3695
1 1.36761 3.78789 17.2038
1 2.35578 5.14058 17.2173
1 2.07207 2.02371 10.1391
1 4.03934 1.29577 3.3036
1 4.95695 0.73233 4.46844
1 4.51478 0.673598 15.7992
1 4.47469 4.32991 10.3414
1 2.71744 5.67022 14.0914
1 4.83939 4.91105 9.17938
1 5.33049 1.70523 17.2304
1 0.791946 0.847976 5.65434
1 1.18255 2.67401 13.1873
1 4.15192 4.13277 2.05303
1 0.73555 3.39388 8.00425
1 2.19547 5.24119 8.65091
1 2.95038 4.7922 5.28463
1 5.39354 5.69072 9.00595
1 4.70003 2.18119 11.4622
1 3.12605 1.32796 4.69056
1 2.28074 2.59343 15.041
1 0.0334231 2.15914 11.471
1 1.31157 4.62805 8.58489
1 4.12765 1.81039 5.97757
1 5.64796 5.28217 7.44509
1 4.75741 1.45813 15.1317
1 2.08659 3.19649 5.08796
1 3.59752 4.6915 17.0252
1 3.86365 5.41006 7.85872
1 2.22956 0.777707 3.13431
1 3.63385 1.95636 16.0883
1 2.62554 0.345431 6.77734
1 1.02183 1.84774 17.6248
1 5.33667 0.208119 15.3058
1 5.77083 5.85216 9.98566
1 0.67992 4.47192 2.91282
1 1.74508 3.49202 15.068
1 3.20537 4.63633 12.583
1 5.5952 0.82713 17.8653
1 4.21857 3.78589 16.668
1 5.38027 2.37256 10.6553
1 1.03583 1.54902 10.1455
1 1.17832 4.90646 13.0249
1 0.678185 0.779424 14.1993
1 2.21095 0.436456 14.4818
1 0.695647 1.69502 4.85389
1 5.08703 4.24457 14.6748
1 2.48574 1.16912 12.5734
1 3.94168 4.21077 13.1171
1 4.0861 2.49056 8.2426
1 5.98454 5.6513 13.5176
1 5.12466 1.13313 3.5909
1 4.56187 4.58746 7.39799
1 5.90025 0.714851 8.80243
1 4.0131 0.888127 10.1227
1 2.96313 3.35324 9.4389
1 4.77416 3.66046 1.42791
1 1.42441 3.07046 14.0088
1 4.52461 0.508159 13.7522
1 4.62562 2.75299 16.465
1 5.49206 0.785059 11.8074
1 4.48415 1.87043 9.03872
1 0.261336 5.24657 17.8483
1 4.56344 0.3405 6.4359
1 0.312924 4.47631 15.3183
1 1.09616 2.93616 5.84741
1 0.275645 3.1754 11.0819
1 4.62765 2.26053 17.6712
1 4.65244 5.37349 0.313323
1 1.19457 1.68237 16.6247
1 4.24512 0.0913016 10.6152
1 1.6016 0.699725 7.23551
1 4.82771 1.41578 14.053
1 4.72363 3.79113 3.97976
1 3.20546 0.468735 2.61683
1 1.79151 5.18888 15.7132
1 1.76835 4.45908 17.7452
1 3.52049 5.98012 15.8369
1 4.31126 0.0237195 5.22493
1 4.27316 5.93176 16.6101
1 3.54203 1.01334 13.5405
1 1.43697 5.51045 0.943931
1 2.83511 4.12301 10.5896
1 1.14518 2.90114 17.639
1 3.27362 3.82362 16.1408
1 4.4783 1.7912 4.09652
1 1.83696 0.470289 15.5901
1 0.133518 1.089 1.85256
1 3.46005 3.52216 11.2466
1 1.03285 0.473254 4.80415
1 1.03094 4.17908 9.53102
1 4.92587 0.069191 17.505
1 0.963079 5.18863 15.0092
1 4.75674 3.32268 10.6674
1 3.13147 0.543712 14.832
1 4.85727 5.21863 8.17553
1 4.69253 3.22004 6.19064
1 1.89087 4.23063 10.0588
1 4.21605 2.65875 5.43711
1 0.455198 4.48537 13.4572
1 2.30533 4.18143 2.28225
1 1.71987 1.72916 11.9117
1 5.44815 0.809576 16.0641
1 5.85442 0.853684 3.01913
1 0.783543 2.10073 12.4027
1 4.71527 5.66151 7.11694
1 4.87754 5.50105 12.3169
1 2.62568 5.24877 9.75173
1 4.54913 5.81422 4.34345
1 4.00678 0.771246 4.5299
1 4.03048 0.29673 3.4083
1 3.61416 5.42523 1.77473
1 4.57392 1.01011 5.45093
1 3.17568 2.65536 14.0694
1 5.83136 2.65175 4.52294
1 2.09505 4.68932 1.38129
1 0.338404 0.051258 5.82665
1 1.49523 4.60857 12.0712
1 1.62864 4.55061 16.5751
1 4.30681 1.39452 13.0431
1 2.36034 4.07589 0.527038
1 0.966707 5.35113 3.3302
1 0.740012 3.40945 15.3456
1 3.51138 5.41176 5.83827
1 2.14113 1.62831 16.358
1 0.637069 3.74273 6.42147
1 3.06968 2.5182 11.2204
1 5.39818 4.45779 9.95147
1 4.37225 2.42634 15.2188
1 2.24266 1.31861 13.9915
1 5.62561 0.959073 14.5591
1 0.917168 2.01091 1.36258
1 3.74885 4.77793 0.121739
1 1.81207 0.613607 11.9346
1 1.69236 3.74182 5.91504
1 3.48175 4.82339 10.3462
1 4.60805 1.17478 17.8639
1 4.32574 1.86625 0.659033
1 5.22363 4.93018 6.58058
1 4.13841 1.63511 17.0947
1 3.3181 4.89038 13.6764
1 3.66499 2.53628 16.9931
1 4.3416 0.993157 11.0346
1 0.615055 4.30184 11.2458
1 2.77109 0.80932 15.7769
1 3.26945 4.53848 2.16092
1 3.58401 2.5066 2.46165
1 2.36004 5.12549 0.261468
1 3.36102 3.91583 4.85895
1 2.43289 2.9282 6.11693
1 4.8839 3.74593 13.6549
1 2.73748 3.21014 16.8319
1 5.31933 2.2299 14.5545
1 3.21911 0.202126 5.22468
1 3.99017 3.5817 6.96432
1 5.05469 5.93232 14.3503
1 2.69817 4.86313 15.0575
1 2.77147 1.19358 9.46986
1 4.84362 4.72136 12.9368
1 1.00059 0.0908253 6.68837
1 5.44724 4.70206 13.7911
1 5.7906 1.53149 5.58502
1 1.83789 3.48228 6.93091
1 5.01813 3.49208 2.70303
1 1.41909 5.67672 12.2661
1 4.98566 1.94712 5.11866
1 2.91381 2.2402 9.2799
1 2.98125 1.54026 2.96845
1 3.5739 1.66291 17.979
1 0.193179 3.22367 0.0893586
1 4.89078 3.91204 8.69923
1 0.249676 4.13774 1.69428
1 2.31726 2.89771 13.1491
1 2.59896 3.24179 11.8779
1 5.27099 1.46436 11.0289
1 5.72573 3.25307 10.3617
1 2.61172 5.77467 15.2733
1 5.9638 2.56663 0.842484
1 2.22882 1.62043 15.3831
1 0.75622 2.40213 15.6108
1 3.72928 3.69208 10.1176
1 5.26105 1.40369 2.24754
1 2.91423 1.5904 14.6727
1 4.08534 2.04401 1.59483
1 3.60635 1.79553 7.19476
1 0.846697 4.99761 16.1774
1 2.29441 2.27354 14.1345
1 5.17921 0.608777 10.4658
1 4.12992 4.81301 12.2277
1 4.30439 5.16283 11.1739
1 0.218266 4.10602 10.3996
1 3.01105 3.62531 6.6796
1 2.04829 1.52105 7.12509
1 5.24733 3.16657 5.40035
1 2.5021 5.73232 5.74202
1 4.29308 3.60886 4.96939
1 4.69042 4.41632 15.7379
1 4.44829 2.87617 3.48432
1 1.14 2.51577 8.22625
1 4.70828 1.41208 12.1157
1 2.56688 0.487587 4.43414
1 5.90104 3.92689 11.8884
1 4.67193 1.56314 7.22324
1 2.75355 2.44866 16.0991
1 0.310016 2.78087 8.83166
1 0.528635 4.411 8.02065
1 1.95842 3.59922 16.3596
1 3.7824 3.5585 7.90248
1 2.39394 4.2021 15.6623
1 0.0630646 3.15669 16.2546
1 1.95187 3.23259 9.78896
1 1.30961 3.51632 0.340133
1 5.64055 4.783 16.0691
1 1.37338 1.02329 12.7612
1 0.239327 3.55975 17.1862
1 0.101774 3.6147 2.57172
1 5.16528 3.83763 6.83932
1 3.52107 3.19564 1.67755
1 5.63143 3.17595 8.28741
1 3.85855 2.53139 9.54742
1 4.5804 3.45078 15.5745
1 3.46953 0.18285 7.3408
1 3.47389 1.60166 12.4229
1 4.69151 0.174181 9.72049
1 1.94734 1.74738 3.03473
1 1.95552 4.00017 9.0086
1 2.33043 4.38872 8.05633
1 4.91456 2.61681 9.81075
1 4.33398 4.11504 11.3303
1 0.659067 5.11699 7.28199
1 4.4376 2.91278 1.93251
1 5.35572 1.16688 7.97441
1 5.55139 5.85494 0.145672
1 5.16719 4.72233 11.8623
1 5.30051 5.79191 16.4632
1 3.66226 5.93598 13.8689
1 3.544 2.68785 6.26882
1 3.81233 4.1963 15.3635
1 2.76308 5.11533 16.0693
1 2.10711 4.7683 6.09638
1 0.642788 3.25325 1.08476
1 3.56336 0.627117 9.14246
1 2.83349 3.48033 15.0774
1 5.06173 0.499831 1.74922
1 2.88316 2.58081 17.7788
1 5.73919 0.491164 17.0035
1 5.88913 1.83602 2.90926
1 4.0213 0.147102 0.0856252
1 0.54316 1.42669 8.02847
1 0.583783 1.45994 9.15526
1 5.09551 1.26923 6.26858
1 0.590123 3.41486 13.4886
1 3.1387 3.00667 5.31643
1 5.97405 0.825927 6.39904
1 3.73759 2.83604 18.1054
1 2.67877 5.56606 4.66554
1 4.17595 5.84634 1.11689
1 2.45016 2.55246 3.60799
1 0.539948 2.98779 4.00326
1 2.40376 4.23634 11.8366
1 0.811951 5.6066 13.9712
1 1.72553 4.4236 14.7974
1 4.63443 3.60716 9.66357
1 5.6406 2.89445 13.784
1 0.0822099 5.07577 10.8638
1 5.12143 1.36238 1.17725
1 4.45649 0.333513 7.82051
1 3.89648 3.4156 8.95457
1 4.33054 2.47603 6.86209
1 2.70989 1.62873 0.271624
1 0.664922 0.559561 11.8127
1 2.81731 4.32245 9.41438
1 2.57645 5.61946 2.43116
1 4.26091 2.97778 13.893
1 2.30427 3.05984 0.748366
1 3.36846 2.94759 3.34081
1 5.4893 5.69018 4.83725
1 5.57252 4.23863 3.32508
1 4.47833 5.2678 10.0235
1 0.448126 5.73612 4.23756
1 0.401087 4.06375 16.298
1 5.86527 4.8338 12.7354
1 2.96931 2.06155 7.99309
1 0.00775684 3.37889 7.21873
1 3.26842 5.58746 17.7733
1 0.752753 0.561562 2.36479
1 1.46455 5.62016 4.2671
1 1.5481 1.1721 2.2887
1 0.608906 0.146804 17.5005
1 0.326354 0.518561 15.4525
1 2.48909 5.66823 1.36246
1 0.550215 2.41996 14.0623
1 3.75292 1.79565 11.2967
1 2.44645 0.447008 0.558264
1 1.97673 0.943596 10.0446
1 3.18437 4.27586 14.5089
1 1.06554 4.36525 5.61633
1 0.198823 1.24352 12.4532
1 1.56705 5.99842 2.86066
1 4.30002 5.20152 13.9026
1 5.92395 5.89179 6.71076
1 1.62322 3.84807 1.28174
1 1.50322 1.18982 14.6572
1 1.81344 5.55869 13.5584
1 1.25547 4.78381 13.9795
1 4.4333 3.14476 11.807
1 2.37056 0.168178 9.1995
1 0.610868 3.3073 9.83074
1 3.27564 1.46444 1.19328
1 5.71113 1.62381 7.11882
1 2.3602 3.62713 14.1233
1 2.28176 4.62592 13.9803
1 1.35176 2.62843 10.4341
1 0.0818894 2.25296 17.8037
1 3.07644 3.47026 2.5582
1 1.0779 4.84335 1.68109
1 1.87015 5.43729 14.596
1 5.32929 2.82865 15.6569
1 1.81491 1.41555 11.0242
1 3.27495 2.29642 0.735367
1 5.5475 6.0051 3.89437
1 2.02221 2.54017 8.87374
1 3.21032 0.870119 3.82878
1 5.26097 2.59231 2.49383
1 3.13149 3.60653 0.326861
1 5.6066 3.18586 1.76721
1 5.13002 1.29409 9.6046
1 5.53885 2.10897 16.3645
1 2.58044 3.94423 13.114