108
Atoms. Timestep 0
Ge    2.000000    2.000000    2.000000
Ge    2.000000    2.000000    6.000000
Ge    2.000000    2.000000   10.000000
Ge    2.000000    6.000000    2.000000
Ge    2.000000    6.000000    6.000000
Ge    2.000000    6.000000   10.000000
Ge    2.000000   10.000000    2.000000
Ge    2.000000   10.000000    6.000000
Ge    2.000000   10.000000   10.000000
Ge    6.000000    2.000000    2.000000
Ge    6.000000    2.000000    6.000000
Ge    6.000000    2.000000   10.000000
Ge    6.000000    6.000000    2.000000
Ge    6.000000    6.000000    6.000000
Ge    6.000000    6.000000   10.000000
Ge    6.000000   10.000000    2.000000
Ge    6.000000   10.000000    6.000000
Ge    6.000000   10.000000   10.000000
Ge   10.000000    2.000000    2.000000
Ge   10.000000    2.000000    6.000000
Ge   10.000000    2.000000   10.000000
Ge   10.000000    6.000000    2.000000
Ge   10.000000    6.000000    6.000000
Ge   10.000000    6.000000   10.000000
Ge   10.000000   10.000000    2.000000
Ge   10.000000   10.000000    6.000000
Ge   10.000000   10.000000   10.000000
Sb    2.000000    2.000000    0.000000
Sb    2.000000    2.000000    4.000000
Sb    2.000000    2.000000    8.000000
Sb    2.000000    6.000000    0.000000
Sb    2.000000    6.000000    4.000000
Sb    2.000000    6.000000    8.000000
Sb    2.000000   10.000000    0.000000
Sb    2.000000   10.000000    4.000000
Sb    2.000000   10.000000    8.000000
Sb    6.000000    2.000000    0.000000
Sb    6.000000    2.000000    4.000000
Sb    6.000000    2.000000    8.000000
Sb    6.000000    6.000000    0.000000
Sb    6.000000    6.000000    4.000000
Sb    6.000000    6.000000    8.000000
Sb    6.000000   10.000000    0.000000
Sb    6.000000   10.000000    4.000000
Sb    6.000000   10.000000    8.000000
Sb   10.000000    2.000000    0.000000
Sb   10.000000    2.000000    4.000000
Sb   10.000000    2.000000    8.000000
Sb   10.000000    6.000000    0.000000
Sb   10.000000    6.000000    4.000000
Sb   10.000000    6.000000    8.000000
Sb   10.000000   10.000000    0.000000
Sb   10.000000   10.000000    4.000000
Sb   10.000000   10.000000    8.000000
Sb    2.000000    0.000000    2.000000
Sb    2.000000    0.000000    6.000000
Sb    2.000000    0.000000   10.000000
Sb    2.000000    4.000000    2.000000
Sb    2.000000    4.000000    6.000000
Sb    2.000000    4.000000   10.000000
Sb    2.000000    8.000000    2.000000
Sb    2.000000    8.000000    6.000000
Sb    2.000000    8.000000   10.000000
Sb    6.000000    0.000000    2.000000
Sb    6.000000    0.000000    6.000000
Sb    6.000000    0.000000   10.000000
Sb    6.000000    4.000000    2.000000
Sb    6.000000    4.000000    6.000000
Sb    6.000000    4.000000   10.000000
Sb    6.000000    8.000000    2.000000
Sb    6.000000    8.000000    6.000000
Sb    6.000000    8.000000   10.000000
Sb   10.000000    0.000000    2.000000
Sb   10.000000    0.000000    6.000000
Sb   10.000000    0.000000   10.000000
Sb   10.000000    4.000000    2.000000
Sb   10.000000    4.000000    6.000000
Sb   10.000000    4.000000   10.000000
Sb   10.000000    8.000000    2.000000
Sb   10.000000    8.000000    6.000000
Sb   10.000000    8.000000   10.000000
Sb    0.000000    2.000000    2.000000
Sb    0.000000    2.000000    6.000000
Sb    0.000000    2.000000   10.000000
Sb    0.000000    6.000000    2.000000
Sb    0.000000    6.000000    6.000000
Sb    0.000000    6.000000   10.000000
Sb    0.000000   10.000000    2.000000
Sb    0.000000   10.000000    6.000000
Sb    0.000000   10.000000   10.000000
Sb    4.000000    2.000000    2.000000
Sb    4.000000    2.000000    6.000000
Sb    4.000000    2.000000   10.000000
Sb    4.000000    6.000000    2.000000
Sb    4.000000    6.000000    6.000000
Sb    4.000000    6.000000   10.000000
Sb    4.000000   10.000000    2.000000
Sb    4.000000   10.000000    6.000000
Sb    4.000000   10.000000   10.000000
Sb    8.000000    2.000000    2.000000
Sb    8.000000    2.000000    6.000000
Sb    8.000000    2.000000   10.000000
Sb    8.000000    6.000000    2.000000
Sb    8.000000    6.000000    6.000000
Sb    8.000000    6.000000   10.000000
Sb    8.000000   10.000000    2.000000
Sb    8.000000   10.000000    6.000000
Sb    8.000000   10.000000   10.000000
