666
Atoms. Timestep: 1000
1 5.64715 1.87433 1.28436
1 0.968308 3.20522 6.85666
1 2.0198 3.34499 7.03644
1 8.51757 7.57996 1.25449
1 4.64502 7.25698 5.59233
1 2.82225 7.14892 5.84091
1 3.35501 0.17223 1.11369
1 5.80198 7.45869 1.37027
1 3.92508 3.56448 3.29096
1 4.15595 5.19579 1.07657
1 7.87967 4.72893 8.00029
1 5.42785 8.121 7.67392
1 4.45387 7.05163 6.58354
1 0.966286 4.47173 5.52002
1 5.11525 1.58458 8.06377
1 6.25841 7.57982 7.98817
1 0.906747 1.54155 0.548225
1 4.02673 1.5905 0.216559
1 8.12126 6.75694 3.05427
1 7.23878 0.20634 0.949915
1 1.22739 2.58225 4.97886
1 8.41752 3.66267 4.36397
1 0.33182 7.19643 6.70245
1 4.95735 7.17769 3.90016
1 3.80866 2.73649 4.54036
1 4.61115 7.99583 7.04297
1 0.503523 3.77319 8.16425
1 3.015 2.84313 8.57958
1 2.81639 7.96196 4.93516
1 6.81126 7.83692 0.979342
1 0.240075 1.37191 7.54269
1 3.4672 2.81068 1.50341
1 0.222981 0.912199 8.64699
1 2.18453 6.4344 2.92655
1 3.33573 5.00708 8.18174
1 1.4947 8.55132 6.00328
1 5.22673 6.49972 6.87952
1 7.57192 1.82194 2.15437
1 5.77005 6.40566 2.19717
1 6.7827 6.95124 0.4443
1 6.10858 1.36937 8.04435
1 2.6011 8.52538 3.80102
1 7.17903 3.73517 2.22265
1 3.36704 2.44922 3.74847
1 4.81009 3.36499 2.89476
1 5.00978 1.5254 0.425979
1 7.63439 5.44713 2.75533
1 1.43783 4.10622 1.70262
1 2.76026 7.76395 8.24179
1 0.699716 0.525939 0.813709
1 4.70927 0.70516 4.15693
1 3.41895 8.16151 3.10603
1 0.741731 4.78915 0.903184
1 7.19494 5.39879 5.45121
1 7.74952 5.24894 6.25487
1 1.4254 0.467434 5.01814
1 0.567279 5.54296 0.109042
1 1.59588 5.48227 8.30769
1 8.24482 2.18378 7.84018
1 3.82326 2.67726 0.448281
1 8.32225 5.53269 8.30817
1 5.62765 4.45317 1.33947
1 6.09547 2.75308 1.38238
1 5.9804 1.88551 3.72953
1 8.46699 2.09446 2.46624
1 1.66899 6.33506 6.13621
1 3.82455 0.0629857 3.93285
1 8.06229 1.28516 8.27608
1 2.17248 3.92371 3.82175
1 5.50992 2.49267 8.07208
1 0.509119 7.13545 1.8675
1 7.03596 3.40273 0.166032
1 6.41976 4.98377 1.05648
1 8.3999 6.20931 6.2327
1 0.621884 2.18057 1.74464
1 3.48826 2.60753 2.63437
1 1.79622 5.77142 2.34298
1 8.07252 6.82281 0.741808
1 0.327176 8.08547 7.84637
1 0.266364 3.06407 3.10717
1 4.03475 2.74852 5.7336
1 6.27879 4.03297 0.531084
1 4.29987 4.45439 4.11741
1 5.58852 0.726546 0.0858654
1 6.18507 1.49329 2.77245
1 1.9671 2.31867 5.8514
1 2.32157 3.29855 5.11653
1 8.03678 3.70797 3.36319
1 1.70042 5.49749 4.42831
1 2.828 3.12935 2.18169
1 0.78823 8.16295 0.849629
1 1.07124 5.13782 6.3791
1 1.11987 2.86159 7.98283
1 3.93532 0.250108 6.6417
1 2.76804 5.98876 6.59481
1 1.41969 5.76635 7.03839
1 3.38618 4.42228 3.50782
1 1.06431 3.5706 2.50651
1 0.206055 8.19336 6.6701
1 1.2004 7.01807 4.60975
1 1.64397 4.14378 6.63956
1 5.60166 4.48739 7.91167
1 0.380096 8.15083 1.99319
1 8.51549 5.65418 4.67881
1 5.81165 6.40678 5.2344
1 8.37508 2.00867 5.81007
1 4.04952 3.27779 7.87426
1 8.32578 7.54707 2.27049
1 3.56813 2.27246 8.01691
1 1.76288 1.93179 7.73942
1 5.02796 3.25505 8.57767
1 5.95216 8.05817 5.88308
1 1.80744 3.65479 8.59749
1 0.343215 4.11362 3.32402
1 4.19528 8.49011 4.84327
1 7.42105 7.37282 1.62148
1 6.06956 8.59581 8.2206
1 6.40196 0.238513 5.39922
1 6.99094 5.39545 8.32906
1 0.778991 6.80763 5.65709
1 1.53258 2.1412 0.0628136
1 0.415581 6.76904 0.944882
1 0.211628 3.01152 2.08239
1 4.01135 6.03842 6.37113
1 1.97182 8.26885 2.36763
1 0.260824 1.11435 5.51153
1 1.30661 4.89972 7.51238
1 7.36283 7.39302 2.5976
1 3.36312 0.0919718 5.70026
1 7.4711 2.0495 6.32561
1 2.59399 1.94944 8.44391
1 4.9242 7.40698 8.6727
1 4.48863 2.4321 2.42587
1 2.1165 7.47582 4.06404
1 7.89457 8.30332 1.65521
1 1.12748 1.22108 8.20538
1 5.70978 3.96966 5.42357
1 1.96256 0.623537 6.51844
1 7.92228 7.97506 5.16325
1 0.696879 2.16873 7.11653
1 5.80691 0.840142 1.05395
1 3.0439 1.72711 4.42803
1 7.47238 7.16555 4.76181
1 5.11304 2.59454 4.20574
1 6.03458 5.68707 8.08904
1 6.54385 5.73268 2.66972
1 3.97252 1.63496 3.88048
1 8.00759 8.23478 7.28687
1 4.81096 6.02067 1.43461
1 2.3596 4.53046 2.00201
1 5.57964 0.341432 4.64959
1 8.3993 0.872956 3.71572
1 2.0415 1.343 5.5157
1 2.56839 5.96906 8.36754
1 1.9895 7.01168 8.6063
1 2.76962 4.21075 4.7662
1 4.96258 2.89773 1.6946
1 6.84917 0.90858 2.30022
1 7.9301 1.41653 7.14633
1 5.54035 6.33147 4.31168
1 3.61613 8.22517 7.45629
1 6.05725 8.06173 4.80524
1 7.49951 2.4501 8.52046
1 1.51106 1.86827 2.11404
1 1.98478 4.22843 5.64888
1 6.95217 5.59833 1.73019
1 0.803634 6.07322 4.41359
1 4.1965 7.54644 4.41595
1 5.84381 7.38546 2.52179
1 8.0671 0.0494772 4.10217
1 6.58853 2.0692 5.56755
1 4.11779 1.50985 2.45931
1 4.47014 3.44478 6.87713
1 0.284087 2.67503 6.17929
1 1.79925 6.43477 3.92803
1 5.30944 2.55331 3.12548
1 1.23096 7.1779 3.44702
1 6.54934 2.57941 6.44705
1 3.27692 3.99968 2.54632
1 5.84727 6.75766 -0.0331383
1 6.0688 7.30925 3.95326
1 2.49184 0.427502 1.84903
1 6.23251 1.90002 7.15168
1 3.31651 1.66066 3.03318
1 2.14998 2.86332 8.08184
1 8.60274 0.535653 6.65297
1 0.327183 2.04853 5.00479
1 0.886901 6.14022 2.03492
1 2.28193 5.24311 7.47549
1 5.54439 7.10972 6.05072
1 7.95021 0.334904 0.145831
1 6.52635 4.8978 7.5855
1 8.12132 3.20398 5.62081
1 0.281571 3.1244 5.09808
1 1.09769 7.63781 6.23585
1 0.149257 1.49658 6.4931
1 2.69838 1.10882 7.4187
1 1.00989 3.12393 1.43552
1 7.34886 7.62408 7.64422
1 3.82954 1.78564 5.45561
1 5.11123 4.66855 5.86463
1 6.1909 4.64889 3.27988
1 8.3643 0.119478 5.74636
1 6.50636 1.9596 2.00654
1 6.72541 6.59839 4.17364
1 7.52771 1.04014 4.20177
1 4.62498 0.702303 5.13416
1 4.33409 5.46576 4.22231
1 6.65096 5.8785 0.499614
1 2.76537 4.19682 6.70575
1 6.7852 1.17376 6.16668
1 7.13719 4.01012 7.87012
1 7.68026 1.76792 5.07937
1 6.40319 2.77277 3.56795
1 1.01425 6.53799 0.14052
1 6.56234 7.84963 3.11777
1 8.63697 6.22634 7.29652
1 0.456841 4.45562 2.39413
1 1.38406 3.68071 5.10291
1 6.10761 3.58683 8.15418
1 7.63842 7.97875 0.5175
1 1.31772 3.90467 7.64328
1 5.57341 1.33231 4.45068
1 2.38806 1.69993 3.6389
1 5.97876 1.25181 5.48696
1 7.45052 6.3334 2.26086
1 4.43417 8.61837 1.53026
1 1.22589 6.783 7.01695
1 1.8632 6.15541 0.458924
1 4.60349 0.243262 7.41595
1 8.30824 8.59191 2.56627
1 5.90014 7.7356 0.319398
1 4.15987 1.93301 6.49764
1 1.34347 7.161 0.873524
1 4.39461 5.41239 5.66542
1 2.30651 4.49333 8.61017
1 4.24845 5.56649 8.08025
1 5.5581 3.29804 2.32417
1 1.03182 1.21993 7.03664
1 8.36903 0.987195 0.834307
1 6.35423 5.78201 4.63511
1 2.34623 2.4406 1.54382
1 2.75912 5.89889 4.43583
1 6.98429 8.30308 8.54172
1 8.33887 7.37789 7.56372
1 7.43046 5.78539 4.42632
1 4.75888 1.01813 6.70119
1 6.96821 7.85982 4.23269
1 5.77805 3.53563 3.44136
1 3.7496 5.70446 5.06696
1 6.43036 2.94287 2.47036
1 0.737762 6.15905 6.44714
1 4.0667 6.86798 0.851758
1 2.74774 3.162 6.11868
1 7.21232 2.25991 7.36398
1 8.50393 1.51995 1.61561
1 1.68251 3.2609 5.99761
1 7.08407 0.12182 3.88189
1 6.90479 7.96568 5.6169
1 3.17866 7.5681 4.03509
1 6.50055 0.248952 1.65727
1 5.52168 2.08723 2.27947
1 4.89847 0.338604 2.27693
1 5.07972 6.75792 0.744642
1 6.42998 0.228985 2.98946
1 5.38243 3.76577 6.4564
1 7.77657 2.94764 2.70031
1 2.40931 7.17253 0.927658
1 0.332814 8.56212 3.59915
1 2.02616 7.24947 6.53355
1 1.9142 7.42477 7.61076
1 5.80594 1.04843 6.612
1 3.65498 5.93066 0.129342
1 1.36693 7.74626 1.67561
1 8.16145 4.57929 6.9443
1 5.7391 8.5374 2.48093
1 2.55709 2.33269 7.28876
1 0.787068 5.3065 2.72511
1 3.38579 3.39615 5.25481
1 7.72174 6.20115 5.26338
1 5.53443 2.80974 6.84034
1 3.45579 1.74306 7.05198
1 7.97573 1.03371 5.93989
1 0.925982 2.89865 0.402552
1 5.67725 5.86347 0.348527
1 2.42373 0.271435 5.57432
1 2.52905 4.53133 3.04076
1 5.35978 7.39513 4.86825
1 6.10729 1.62721 0.299675
1 6.05515 3.01946 0.333442
1 7.6468 8.13414 3.3061
1 6.50919 2.2819 8.28334
1 4.36455 6.24906 7.39841
1 5.27544 3.48396 7.56358
1 6.16442 2.72289 4.51841
1 0.0614841 6.53407 4.9869
1 4.22125 1.50245 7.6957
1 5.91798 5.38861 1.83984
1 5.41712 3.54681 0.909237
1 3.14301 6.79121 0.272743
1 3.95463 4.42694 1.87225
1 3.53654 5.02979 2.81707
1 7.1167 4.29781 6.77233
1 3.54825 4.21443 7.63967
1 7.28717 3.26924 6.8239
1 4.90005 1.24465 1.74484
1 5.34196 5.3609 3.8848
1 6.69597 8.49743 7.40848
1 4.41832 8.11121 8.09609
1 3.00697 1.07507 5.29373
1 6.85647 6.99748 7.0945
1 1.57875 0.629708 2.53286
1 7.95052 7.08721 6.80571
1 1.51278 1.67771 3.08096
1 2.04555 3.70532 2.74302
1 7.18372 4.30998 1.17767
1 1.09779 7.88696 5.1926
1 7.1632 2.72815 1.89755
1 4.88196 4.15716 4.92935
1 4.27816 2.05337 1.15427
1 4.58179 2.37383 8.50386
1 8.5542 4.5676 0.109798
1 8.02836 6.51411 4.20144
1 7.58775 5.33732 0.668604
1 4.12482 4.59526 6.27084
1 3.699 3.71689 6.27035
1 7.56595 3.77836 5.01441
1 1.77737 6.27065 5.0618
1 3.6028 0.592462 7.50621
1 8.21419 4.41935 1.03511
1 3.10889 2.09382 6.16341
1 0.656784 4.18025 6.99319
1 5.17588 5.57812 4.98651
1 7.86678 3.0164 0.64801
1 3.67447 2.71035 6.80911
1 5.23015 2.62139 0.719719
1 4.27365 2.57682 3.4033
1 0.582505 6.90672 7.73149
1 1.67236 2.39425 6.76715
1 6.51008 1.76238 4.52957
1 7.11618 7.09934 6.07594
1 5.1405 8.34833 5.26699
1 1.73176 7.17329 5.44445
1 4.5106 5.16225 3.1985
1 3.39976 3.67914 4.29082
1 7.40215 4.50631 3.04819
1 3.87821 0.174604 2.52155
1 5.69229 4.38619 2.45483
1 7.63198 7.19163 8.4971
1 6.26304 3.80595 1.72515
1 1.31189 4.37874 3.60949
1 7.17203 0.968332 5.28331
1 3.05958 8.19927 2.08203
1 0.0207529 5.31718 5.78679
1 7.74916 1.73637 3.20762
1 3.02865 3.24338 7.44921
1 0.695772 3.85829 4.38411
1 0.949681 6.16837 3.35752
1 3.31207 5.97791 7.49975
1 5.93664 4.65563 4.31971
1 4.07342 7.27442 7.59947
1 8.38004 3.89165 7.61877
1 2.63523 5.18339 5.19891
1 2.82351 5.44114 0.475834
1 7.70002 6.53145 7.70818
1 3.0002 0.978164 6.3519
1 1.10792 4.59646 8.50369
1 0.881478 5.87056 1.02696
1 7.93143 5.25854 3.78054
1 4.8817 3.95996 1.79506
1 -0.0209357 4.68327 4.06599
1 6.57642 3.71836 5.10392
1 5.97312 5.60042 7.03367
1 5.21677 0.228815 3.32196
1 4.90898 1.46304 5.80729
1 7.44588 0.149092 4.84397
1 2.21027 2.77142 0.563703
1 3.49213 6.60977 4.25636
1 2.74803 5.60522 3.20615
1 7.57906 4.30775 4.06184
1 6.31793 6.4414 6.45963
1 2.13324 0.70098 3.38821
1 6.94134 3.35499 1.14318
1 8.26141 1.69341 4.18577
1 0.411929 8.61167 8.66008
1 8.16292 7.07997 5.63177
1 8.04938 8.12461 8.24739
1 5.52481 8.51271 6.74624
1 5.21217 4.36838 3.58766
1 5.10697 5.52633 7.50619
1 5.13631 6.27674 8.25314
1 3.67514 6.14749 2.80924
1 0.127639 3.69791 0.655057
1 3.79288 0.933709 4.59945
1 4.18642 5.07124 7.18339
1 7.48051 1.27185 0.442638
1 4.5499 4.2529 7.8766
1 6.72324 0.806046 0.0266246
1 7.78343 2.00877 1.04741
1 4.84001 7.75907 1.1048
1 1.92179 2.71352 3.28921
1 1.17047 2.2485 3.94729
1 6.85714 1.14962 3.45439
1 0.913351 5.87216 5.44571
1 4.42338 4.39276 2.67723
1 8.15554 2.67994 3.66966
1 5.24875 4.22087 0.0872841
1 5.83739 0.84667 2.10076
1 6.2691 8.65877 0.593798
1 3.14408 3.42351 0.709729
1 0.391529 4.00065 1.56042
1 4.85814 6.35853 5.88459
1 1.99316 8.26805 6.8755
1 2.91731 0.0928113 6.85358
1 6.70944 6.21465 5.56039
1 0.252354 5.32654 6.93153
1 0.244501 7.53439 4.69551
1 6.92857 2.34189 0.69067
1 6.56125 0.771399 4.47725
1 6.45214 7.17053 5.15542
1 6.14671 5.76451 3.61786
1 3.85582 0.620335 0.392954
1 1.15764 0.992147 5.91744
1 4.45019 6.44828 4.68202
1 4.96433 6.92792 1.73995
1 5.73277 2.00956 6.21682
1 3.01717 3.75408 8.40458
1 4.86694 5.00167 1.81085
1 7.23334 8.45815 2.41192
1 7.93638 5.69072 1.58922
1 8.11772 7.72505 4.14072
1 8.29988 0.991729 2.56359
1 0.259765 4.7321 7.7289
1 7.34233 6.2516 6.46752
1 4.94345 1.68289 3.78338
1 0.751436 5.20907 3.75618
1 4.2846 8.44811 0.378307
1 1.01743 1.20704 1.4211
1 0.523357 0.395217 2.54511
1 2.24005 1.44362 1.51078
1 1.36559 0.419553 0.112509
1 0.922156 0.263052 6.63677
1 3.48468 8.60172 8.43165
1 0.749435 3.56303 5.9306
1 5.40019 2.20255 5.21502
1 4.56395 0.704401 8.40747
1 1.25948 1.53275 4.98364
1 5.12758 7.10801 7.72733
1 1.49796 4.63352 2.64936
1 1.06609 1.90967 6.12687
1 2.25704 8.24181 1.34207
1 5.95326 7.54033 6.94684
1 0.69655 0.967451 3.33206
1 3.40768 5.99366 1.16407
1 2.23499 1.62513 6.4613
1 2.92664 7.63997 6.92254
1 2.33763 6.59052 7.2838
1 6.95782 4.45591 5.78613
1 3.06277 0.303013 4.65368
1 2.46477 4.88254 3.97524
1 3.01372 1.12876 0.904634
1 0.369166 2.82313 4.16776
1 3.1792 5.05721 7.03395
1 3.36354 6.72866 6.7653
1 1.66851 4.4938 4.59969
1 0.587549 2.0617 8.34045
1 5.11517 5.16228 0.764503
1 1.67882 6.36244 1.50379
1 2.63422 0.0890115 7.83563
1 6.60167 3.0221 7.50463
1 2.95214 2.41609 5.222
1 4.04362 3.70458 0.134841
1 7.74553 0.62013 1.87985
1 3.41247 4.94207 4.39437
1 3.99972 1.01449 1.37
1 7.94708 3.53309 1.51761
1 4.60798 4.26584 0.898378
1 8.46638 5.92534 0.638119
1 7.40254 3.27234 4.05877
1 0.170011 2.9358 7.56792
1 4.94634 5.47632 6.53878
1 6.59518 6.76818 2.98904
1 6.44987 0.212328 6.51674
1 0.740979 5.04253 4.77984
1 2.67856 2.91004 4.28319
1 8.28894 3.84754 2.41404
1 6.0141 6.51761 7.52546
1 2.32722 4.34827 0.965106
1 6.85203 5.94073 7.31699
1 4.91819 0.484344 0.819053
1 1.50884 6.33499 7.92102
1 8.38364 0.486561 7.70715
1 3.97084 6.56583 1.84825
1 0.0705667 2.67583 0.981547
1 3.17897 7.28192 1.56898
1 5.25645 8.40604 0.0741932
1 3.76573 7.61485 0.0130752
1 1.82113 2.82515 2.21105
1 0.472452 1.13847 4.44694
1 4.33021 4.81415 0.06812
1 1.7507 0.397718 7.48766
1 1.67179 5.05726 0.661776
1 8.64773 7.66236 3.21177
1 6.13756 5.00917 5.46834
1 3.30987 0.853215 2.13041
1 2.20032 0.955845 8.26167
1 3.24772 1.10683 8.33906
1 0.149745 8.52662 4.78946
1 7.4124 0.292524 7.8945
1 4.47371 8.21818 6.07271
1 5.27204 1.85091 7.11275
1 7.06371 2.65621 4.97134
1 7.14826 1.53293 8.11393
1 6.86715 2.1741 2.91833
1 4.74535 3.02167 5.104
1 7.3314 6.04429 3.49715
1 3.45174 5.25703 5.99242
1 2.3216 7.31614 2.01062
1 8.39163 4.8174 2.94269
1 5.04195 1.23146 2.89718
1 5.15699 8.18613 4.19414
1 8.59521 6.56214 8.41175
1 2.38435 4.21948 7.6275
1 6.64503 6.89079 1.93362
1 7.97634 5.56587 7.30415
1 0.165262 0.470544 1.67458
1 6.76617 5.29258 6.42947
1 4.4965 3.42099 4.13443
1 5.11313 4.39611 7.09767
1 7.95259 4.80521 4.9762
1 7.26857 0.135689 5.98739
1 3.86074 7.03319 3.43009
1 5.02538 7.94455 2.08698
1 5.58295 3.59531 4.49243
1 1.96699 1.3303 0.525437
1 0.00458249 4.1236 5.26759
1 0.403966 6.84978 2.80997
1 6.81313 6.47274 8.16181
1 5.7452 5.71403 5.99043
1 0.176027 5.13203 1.69252
1 2.50533 2.25865 2.69056
1 2.50601 0.279414 0.435049
1 3.23436 3.88577 1.58673
1 7.66463 3.12923 7.72008
1 4.58608 3.69766 5.85476
1 6.20974 4.00312 7.2385
1 4.20939 3.32251 1.16117
1 0.313718 6.91429 3.93279
1 4.10817 3.49222 2.12391
1 3.79496 6.64015 5.4389
1 1.18779 0.0743993 1.82506
1 4.68134 6.20512 3.52358
1 5.55521 6.58238 3.23505
1 3.69497 7.81456 5.38282
1 3.95713 5.55591 1.96867
1 2.27379 3.403 1.41199
1 5.13637 5.20909 8.43065
1 4.10756 7.57664 2.12086
1 4.73174 6.0716 2.52214
1 3.18778 6.94775 7.79586
1 8.51255 8.59231 0.865115
1 3.50957 5.65326 3.78523
1 5.60948 0.626934 7.52573
1 0.883626 8.0303 2.86188
1 1.41639 1.30667 4.00681
1 1.33564 5.14624 1.71756
1 4.3944 8.08515 3.34117
1 0.654514 0.166226 5.52135
1 1.69947 5.30263 5.45992
1 2.96856 2.11665 0.756389
1 7.35139 7.15806 3.59012
1 8.24499 2.46047 6.83467
1 3.21128 1.9044 1.93118
1 3.09511 4.38864 5.72436
1 6.05939 4.98994 0.127732
1 7.25456 4.46581 0.213368
1 0.0522339 5.85994 3.45583
1 1.72922 3.12235 4.37247
1 6.52242 7.92788 1.9823
1 2.93041 3.30298 3.37657
1 2.06103 2.05381 4.57194
1 5.94558 3.00224 5.60575
1 5.8461 0.902792 3.604
1 6.7809 4.76798 2.345
1 2.91675 7.97611 0.602224
1 1.16308 3.82838 0.692283
1 1.98105 8.33985 4.61615
1 1.78451 0.515297 1.10814
1 2.27728 0.881804 4.40316
1 0.715503 0.32335 7.59758
1 1.07734 7.9202 4.12515
1 4.96627 2.67593 6.04826
1 2.83087 6.18655 5.45496
1 5.11157 0.466032 6.00501
1 2.30639 7.65559 3.12858
1 7.93124 4.14861 6.03767
1 1.07169 3.36139 3.5855
1 3.81279 7.87302 1.14049
1 8.1167 2.58924 1.73232
1 1.67556 8.43978 3.42724
1 2.17661 4.97582 6.40761
1 3.36129 4.45198 0.606406
1 7.64972 0.631968 3.20563
1 0.623378 1.41555 2.51487
1 2.25953 5.39722 1.38642
1 5.39279 7.93094 3.20094
1 1.15893 7.97072 7.17487
1 6.05345 8.46863 3.81589
1 5.97869 4.64544 6.47072
1 4.52738 1.88698 4.71149
1 6.90597 4.56221 4.7388
1 0.367531 1.92537 3.38922
1 2.61881 6.93972 4.76893
1 0.208343 4.47937 6.18722
1 7.35836 6.2814 1.11556
1 3.20935 7.18234 2.6646
1 7.84398 4.73041 1.90856
1 7.93741 7.87515 6.28421
1 0.986166 7.57446 8.5598
1 6.89478 1.32393 1.34474
1 3.13669 5.03149 1.58705
1 8.23741 6.72152 1.72002
1 4.03544 4.49491 5.16898
1 7.6465 6.16837 0.0522833
1 7.18395 3.25525 5.82691
1 3.91615 0.894166 5.86808
1 8.00309 3.75839 8.50509
1 6.67312 0.99508 7.2135
1 6.54745 3.93811 4.01171
1 4.16377 0.831503 3.2937
1 5.63165 8.4868 1.43117
1 8.36515 3.48162 6.68723
1 5.98431 6.37483 1.18439
1 4.65017 5.93967 0.377383
1 1.85022 7.94339 0.443856
1 8.61998 7.54892 0.273789
1 1.57188 8.30228 8.14303
1 0.692556 5.72498 7.73733
1 1.6953 5.39433 3.2993
1 2.86741 6.74418 3.50997
1 8.55678 1.81552 0.38584
1 7.53429 0.392027 6.92411
1 1.0766 2.44698 2.74408
1 8.22746 0.822788 4.89897
1 1.10586 0.279042 4.08585
1 6.39092 3.68193 6.13675
1 2.95211 0.341884 2.89387
1 6.94103 7.93381 6.65647
1 3.59244 7.9689 6.37157
1 4.82388 7.14634 2.83015
1 3.14504 0.906975 3.75604
1 8.5569 2.81863 8.60127
1 5.44902 5.43595 2.7729
1 2.56091 8.06588 6.01544
1 8.57335 5.94587 2.51235
1 4.65073 2.51533 7.40535
1 0.114479 7.86914 5.72678
1 1.48045 2.30061 1.10057
1 7.2835 2.15068 3.96431
1 8.0389 2.70026 4.66572
1 1.4336 7.09225 2.40908
1 2.30623 1.29623 2.49926
1 4.14348 6.64822 8.38596
1 6.90591 5.11035 3.77305
1 2.76818 6.1275 2.00962
1 6.90535 3.54569 3.12483
666
Atoms. Timestep: 2000
1 5.81908 2.12345 0.731931
1 0.882049 3.20521 7.00136
1 2.10622 3.22858 7.04797
1 8.44451 7.44448 1.24098
1 4.43713 7.22546 5.49462
1 2.89394 7.21276 6.39845
1 3.25174 0.293432 1.12517
1 5.94818 7.33941 1.09785
1 3.87496 3.48919 3.41557
1 3.74532 5.36756 0.687271
1 7.80112 4.77163 7.95997
1 5.5459 8.00184 7.84449
1 4.47083 6.46906 6.34858
1 1.33838 4.85183 5.52603
1 4.96259 1.64397 8.21086
1 6.31471 7.47048 8.17595
1 0.793761 1.96751 0.440029
1 4.04481 1.77988 0.0295593
1 8.07031 6.56409 3.04869
1 7.44014 0.00666594 0.999572
1 1.35946 2.67785 5.28491
1 8.37508 3.65025 3.93723
1 0.360959 7.20845 6.46439
1 4.92634 7.14677 3.91294
1 4.15206 2.9624 4.31966
1 3.86369 8.24373 7.21819
1 1.18326 3.24781 8.27513
1 3.26321 2.68845 0.00515591
1 3.29199 7.91391 4.53732
1 6.79908 7.9168 1.18574
1 0.27229 1.38491 7.68744
1 3.58606 2.94603 1.46604
1 0.516799 1.04712 0.0934432
1 2.18091 6.11689 2.78506
1 2.98537 5.07861 8.14421
1 2.16798 8.52419 5.86532
1 5.56776 6.40385 6.62583
1 7.61861 1.88313 2.55356
1 5.58049 6.32367 2.27337
1 6.72135 7.04722 0.569112
1 5.88746 1.40319 7.85298
1 2.70322 8.51728 3.91115
1 7.43362 3.77322 2.23186
1 3.46672 2.50361 3.58793
1 4.68988 3.70134 2.87218
1 4.91945 1.53358 0.770637
1 7.49888 5.37437 2.65103
1 1.73014 3.92829 1.89708
1 3.20004 7.84053 8.61961
1 0.51671 0.550913 1.12198
1 4.98518 0.491365 4.21345
1 2.9591 7.98542 2.98228
1 0.586205 4.76359 0.649079
1 7.27137 5.34608 5.73675
1 8.12664 5.23238 6.01682
1 0.938535 0.635746 4.89197
1 0.690813 5.23767 8.40502
1 1.69927 5.54769 8.3451
1 8.35335 2.13218 7.89208
1 4.09727 3.06335 0.56037
1 8.44486 5.85552 8.13585
1 5.68434 4.15282 1.41555
1 6.17277 2.90095 1.27968
1 6.12209 2.14879 3.90309
1 8.63328 2.10696 2.67719
1 1.73799 6.69501 6.24565
1 3.63399 8.31651 3.62602
1 7.84539 1.20295 8.15861
1 2.32742 3.83035 3.89746
1 5.56005 2.54536 7.90871
1 0.583039 7.26513 2.02977
1 6.74172 3.09774 0.026245
1 6.63183 5.24854 0.871305
1 8.65397 6.27152 6.10626
1 0.79838 1.84235 1.62758
1 3.64226 2.6586 2.54646
1 2.04625 5.67261 1.8711
1 8.24124 6.39111 1.10126
1 0.0263531 8.33596 7.94479
1 0.247182 3.10853 3.10803
1 4.11798 2.44856 5.69647
1 6.38273 4.27117 0.70852
1 4.20547 4.69995 3.82198
1 5.53813 0.975934 0.134604
1 6.1974 1.85853 2.76093
1 2.08139 2.09535 5.69317
1 2.43441 3.04673 5.20201
1 7.43334 3.51953 3.21585
1 1.59502 5.26352 4.63657
1 2.85418 3.2559 2.20226
1 0.661281 7.8738 0.9592
1 1.19265 5.23152 6.49585
1 1.49507 2.281 7.61528
1 4.2194 0.135112 6.11269
1 2.66544 5.95892 6.42123
1 1.77267 5.98075 7.06964
1 3.21283 4.26102 3.5794
1 1.04019 3.7543 2.44438
1 8.49255 8.16423 6.88878
1 1.12965 7.10552 4.57997
1 1.63115 4.09847 6.58171
1 5.71951 4.5416 7.63669
1 8.56285 8.07297 2.11785
1 8.3952 5.50801 4.69009
1 5.65751 6.27713 5.59492
1 8.56592 2.03469 5.84427
1 4.00961 3.53232 8.27046
1 8.21253 6.96557 2.11331
1 3.49332 2.09806 7.83257
1 2.36411 1.70331 7.81831
1 4.97249 3.28843 8.39646
1 5.93852 7.95675 5.44856
1 1.94906 3.7918 0.160708
1 0.543348 4.22281 3.21626
1 4.07403 0.00374848 4.55787
1 7.38064 7.1157 1.54502
1 6.11078 0.251322 8.35419
1 6.57296 0.220428 5.36777
1 7.15403 5.59436 7.86977
1 0.889239 6.81717 5.6071
1 1.77959 2.16634 8.57324
1 0.639673 6.72791 1.00221
1 0.406199 3.03064 1.97218
1 3.51308 6.37699 5.92713
1 1.85636 8.04564 2.32418
1 0.154882 0.994374 5.7367
1 1.44133 4.83186 7.41024
1 7.37763 7.3639 2.54344
1 3.56011 0.617343 5.25296
1 7.71381 2.34857 6.34792
1 2.77672 1.75614 0.0276213
1 5.0079 7.22498 8.25793
1 4.5441 2.0762 2.2526
1 2.04745 7.9428 4.60918
1 7.502 8.16016 1.85994
1 1.40475 1.34267 8.21156
1 5.54721 3.72228 5.69289
1 1.93309 0.663076 6.47493
1 7.93886 7.89031 4.93539
1 0.843448 1.81858 6.9044
1 5.90071 1.03786 1.12177
1 3.4209 1.71721 4.11546
1 7.34399 6.90241 4.85011
1 5.31323 2.84688 4.01363
1 5.91302 5.76497 8.12526
1 6.4902 5.68875 2.61327
1 4.20093 1.46241 3.58897
1 7.53511 8.41348 6.96795
1 5.08123 5.95191 1.27435
1 2.39221 4.74945 2.03931
1 5.61469 0.178073 4.91852
1 8.53631 0.702348 3.62095
1 2.09497 0.912137 5.5185
1 2.48093 5.9671 7.81585
1 2.2786 7.27273 8.40426
1 2.86353 4.0142 4.8432
1 4.48494 3.04953 1.87855
1 6.84472 1.26503 2.12318
1 7.49409 0.928556 7.12387
1 5.53056 6.35384 4.42086
1 3.16777 0.239704 7.77658
1 6.21543 8.05334 4.507
1 7.41993 2.39694 8.27799
1 1.7728 1.94981 2.33925
1 2.04402 3.99476 5.63541
1 6.91045 5.58828 1.76156
1 0.787564 6.09676 4.45574
1 4.2474 7.62407 4.59025
1 5.70893 7.38468 2.20085
1 8.03517 8.57334 4.07212
1 7.02044 1.95201 5.82279
1 4.35005 1.05118 2.47539
1 4.24716 3.56395 7.21671
1 0.797603 2.54839 6.08515
1 1.83073 6.75866 3.85743
1 5.36539 2.83769 2.91678
1 0.921552 7.27251 3.4768
1 6.94136 2.83922 6.7225
1 3.07422 4.22536 2.54043
1 5.8293 6.76085 0.0455557
1 6.13797 7.20113 4.02018
1 2.38303 0.443629 1.74742
1 6.38028 2.08569 7.21355
1 3.53684 1.62034 2.86046
1 2.22665 2.97794 8.06146
1 8.32646 0.296829 6.42471
1 0.588756 1.96843 5.087
1 0.300017 6.27659 1.88446
1 2.42919 5.11035 7.23897
1 5.44296 7.17948 5.94305
1 8.28844 0.441201 8.56678
1 6.76557 4.65089 7.68291
1 8.24732 3.03268 5.87652
1 0.35723 2.94386 5.08576
1 1.14462 7.79503 6.14513
1 8.37786 1.54751 6.82801
1 2.38582 0.783926 7.36964
1 1.35487 2.74421 1.62513
1 7.48035 7.76657 7.81305
1 4.09351 1.54102 5.34769
1 5.01937 4.66101 5.91242
1 6.11677 4.79237 3.16675
1 8.0086 0.304303 5.41011
1 6.27014 1.87982 1.60367
1 6.68625 6.34786 4.34737
1 7.51465 0.916488 4.28589
1 4.61794 0.537895 5.23524
1 4.32134 5.46761 4.51636
1 6.63047 6.05894 0.2652
1 2.63005 3.85604 6.50647
1 6.7342 1.2409 6.58164
1 7.32756 3.74114 7.95222
1 7.61568 1.93703 5.0989
1 6.28383 3.11173 3.46508
1 0.937441 6.14316 0.146917
1 6.59467 7.86284 3.25647
1 0.0663145 6.54664 7.14326
1 0.582949 4.68636 2.3254
1 1.11546 3.68266 5.24112
1 6.33991 3.91535 8.17356
1 7.59471 7.63896 0.61029
1 1.76261 3.91798 7.80779
1 5.52757 1.34513 4.68388
1 2.5985 1.64911 3.56284
1 6.29711 1.1172 5.65681
1 7.18391 6.39409 2.6407
1 4.07914 8.68117 1.67566
1 1.11878 6.84254 7.14539
1 2.41351 6.4241 0.142208
1 4.17024 0.699714 7.69656
1 8.09089 0.116447 2.78207
1 5.79881 8.09966 0.311597
1 4.67347 1.78745 6.26576
1 1.60396 6.83979 0.595709
1 4.0821 4.85633 5.48341
1 2.12072 4.63421 8.37608
1 4.08924 6.02501 7.7654
1 5.47401 3.35239 2.14718
1 1.40425 1.09825 7.28987
1 8.22944 0.819352 0.804523
1 6.36052 5.54446 4.90723
1 2.46328 2.43018 1.74374
1 2.58731 5.8641 4.74242
1 6.79515 8.13798 0.17786
1 8.42428 7.27928 7.65524
1 7.33003 5.48608 4.6433
1 4.78603 0.802522 6.79923
1 7.12804 7.6686 4.25204
1 5.55467 3.75757 3.33123
1 3.55465 6.00318 5.02288
1 6.27732 2.81196 2.38863
1 0.933817 6.16583 6.34642
1 4.22094 6.60429 1.11411
1 2.49178 2.89477 6.20628
1 7.47909 1.94509 7.32772
1 8.6562 1.50468 1.32588
1 1.49928 3.27539 6.05087
1 6.93334 0.0837879 3.72811
1 6.94435 7.84609 5.32333
1 2.99241 7.36967 3.80859
1 6.70996 0.26427 1.86395
1 5.40524 2.2904 1.89808
1 5.03533 0.334843 1.7361
1 4.95641 6.87589 0.655233
1 6.4772 0.64279 2.9006
1 5.27138 3.78158 6.7023
1 7.95715 2.92818 2.521
1 2.51221 7.10042 1.01603
1 0.268988 8.44169 3.53112
1 1.96985 7.74791 6.56723
1 1.72521 7.52013 7.62742
1 5.77498 1.07065 6.60567
1 3.3298 5.97869 8.42958
1 1.42082 7.48321 1.46113
1 8.15178 4.71145 6.88294
1 5.872 8.39424 2.58627
1 2.70683 2.35467 7.19027
1 0.972988 5.73695 2.36089
1 3.47572 3.35086 5.19183
1 7.76413 6.09839 5.38226
1 5.98928 3.06378 6.74351
1 3.17653 1.43291 7.17027
1 7.86329 1.3278 5.99492
1 1.20648 3.0138 0.593994
1 5.61587 5.85965 0.419109
1 2.87631 -0.0450188 5.14942
1 2.46775 4.94227 3.13593
1 5.29684 7.28652 4.85007
1 4.76552 2.37317 0.240224
1 5.85626 3.01278 0.248725
1 7.52107 8.04606 3.42149
1 6.35706 2.21143 8.41713
1 4.74442 6.83191 7.24001
1 5.57119 3.50789 7.66504
1 6.14592 2.99026 4.54868
1 0.0484412 6.5485 4.94899
1 4.18926 1.56363 7.26067
1 5.80429 5.38553 1.79927
1 4.86221 3.73167 0.751719
1 3.32561 6.9361 0.458686
1 3.6095 4.79356 1.71198
1 3.54301 4.99933 3.05577
1 7.02843 4.95746 6.66179
1 3.64028 4.29807 7.57556
1 7.39918 3.95312 6.75395
1 5.13417 1.37316 1.83801
1 5.11455 5.57935 3.92085
1 6.51338 8.31464 7.52572
1 4.0216 8.48984 8.24391
1 3.01884 1.4719 5.45429
1 6.90068 7.16594 7.17342
1 1.61516 0.617391 2.8314
1 8.00231 7.10787 6.59905
1 1.53891 1.63325 3.20316
1 2.16375 3.93803 2.84071
1 7.20665 4.51433 1.40184
1 1.32513 8.29041 5.19307
1 7.12732 2.7182 1.8429
1 4.89594 4.49599 4.68624
1 4.25396 2.22889 1.14922
1 4.35471 2.55402 7.9091
1 8.27953 4.74043 0.310072
1 7.84603 6.20459 4.17044
1 7.29471 5.13675 0.122201
1 4.2398 4.44821 6.4417
1 3.52964 3.43805 6.33792
1 7.6525 3.60123 5.12422
1 1.71324 6.2989 4.91016
1 3.4165 0.427443 6.87185
1 8.19324 4.2505 1.18183
1 3.2337 2.12374 6.23479
1 0.72481 3.95052 7.68171
1 5.32899 5.45554 5.04126
1 7.87061 2.57598 0.886606
1 3.85136 2.58669 6.97586
1 5.14298 2.85992 1.15503
1 4.40245 2.50989 3.23152
1 0.515645 6.54211 8.0173
1 1.82032 2.2929 6.67817
1 6.53209 1.74468 4.78654
1 7.30951 7.0708 5.88235
1 4.92121 8.18712 5.30055
1 1.78109 7.34971 5.42724
1 4.40288 5.50832 3.21036
1 3.75108 3.94665 4.37891
1 7.15187 4.54759 3.09662
1 3.79614 0.149467 2.68209
1 5.43368 4.57043 2.36972
1 7.49712 6.9906 8.4935
1 6.55828 3.6572 1.61894
1 1.44042 4.44351 3.65934
1 7.19066 0.97065 5.28969
1 3.16804 8.35233 2.03466
1 0.320799 4.69221 5.72188
1 8.02876 1.58018 3.55216
1 3.21362 3.2077 7.64558
1 0.805318 3.8432 4.10998
1 1.10252 6.24227 3.33983
1 3.23841 5.72209 7.13127
1 5.79722 4.74993 4.31428
1 4.10119 7.47288 7.8275
1 8.40049 3.96216 8.00455
1 2.31165 4.81402 5.18911
1 2.59805 5.38091 0.28191
1 7.58489 6.55307 7.54064
1 2.87164 0.604608 6.00981
1 1.06591 4.24867 8.57361
1 0.730662 5.77002 1.14331
1 7.87175 5.07132 3.87051
1 4.76137 4.0712 1.86981
1 0.0816223 4.72972 4.05835
1 6.51792 3.64007 5.24895
1 5.92751 5.41016 7.16898
1 4.97731 0.271431 2.74082
1 5.13944 1.2563 5.58305
1 7.26848 8.66263 4.75182
1 2.30469 2.78862 0.371472
1 3.68479 6.7082 4.30402
1 3.08517 5.58814 2.27641
1 7.5215 4.11684 4.19985
1 6.39032 6.83693 6.25615
1 2.30466 0.651926 3.55943
1 7.21395 3.48134 0.880509
1 8.44638 1.89349 4.48297
1 0.426476 8.57386 0.241425
1 8.35323 7.30312 5.68112
1 7.76253 8.33074 -0.0280169
1 5.47088 0.113367 7.19201
1 5.08335 4.67315 3.38866
1 5.03193 5.81728 7.32953
1 5.05647 6.25858 8.29895
1 3.62211 6.10887 2.91337
1 0.239029 3.62612 0.560236
1 4.33813 1.22391 4.51428
1 4.19695 5.09329 7.2688
1 7.37699 1.48053 0.337944
1 4.78847 4.24184 7.86248
1 6.40721 1.48086 0.341608
1 7.55519 1.80589 1.43745
1 5.0643 7.92168 1.07983
1 2.07072 2.5421 3.4654
1 1.27671 2.14623 4.18797
1 6.72999 1.31804 3.74328
1 0.52999 5.77775 5.45111
1 4.39536 4.64794 2.67474
1 7.94995 2.63651 3.47772
1 5.44076 4.26457 8.58442
1 5.832 0.752137 2.1578
1 6.30547 0.2419 0.715392
1 3.13193 3.45225 0.701196
1 0.446736 4.02161 1.49528
1 4.50805 5.80283 5.49494
1 2.46832 8.60542 6.91458
1 3.16219 8.29605 6.25219
1 6.73937 6.20742 5.50374
1 0.234536 5.55745 6.68968
1 0.390628 7.61581 5.07618
1 6.91439 2.27596 0.781986
1 6.38973 0.52617 4.4531
1 6.23409 7.06273 5.08255
1 6.09563 5.73169 3.57002
1 3.50452 1.25309 0.678384
1 0.536559 0.814203 6.64734
1 4.60379 6.53631 4.76462
1 5.01629 6.96385 1.64657
1 5.86663 1.93219 6.14554
1 2.95585 3.85849 8.43542
1 4.78057 5.2276 1.96413
1 7.08371 8.56751 2.73041
1 7.73574 5.33986 1.02485
1 7.99106 7.25711 4.01
1 8.39366 1.10181 2.65267
1 0.176762 4.83674 7.64472
1 7.58684 6.17125 6.38313
1 5.17083 1.83724 3.81347
1 0.761897 5.32347 3.44351
1 4.19081 8.63884 0.598037
1 1.46172 1.11029 1.85459
1 0.490472 0.416915 2.76124
1 2.7051 1.34532 1.60629
1 1.60486 0.284531 8.6587
1 0.754193 8.47933 6.83612
1 3.30247 0.334758 0.141036
1 0.531047 3.57247 6.14382
1 5.70443 2.27406 5.11292
1 4.28232 0.770096 0.0227523
1 1.54032 1.61695 5.07678
1 4.79769 7.92399 7.20443
1 1.51007 4.75725 2.5708
1 1.17774 1.50028 6.07454
1 2.28803 8.09036 1.39001
1 5.92958 7.64012 6.72171
1 1.05031 0.547131 3.68649
1 3.10133 6.12706 0.920723
1 2.4639 1.4988 6.59215
1 2.82781 7.63726 7.36299
1 2.35586 6.72414 7.21025
1 7.13475 4.32888 5.76951
1 3.3309 0.593189 4.28599
1 2.56555 5.03836 4.10818
1 2.45464 1.0867 0.698186
1 0.356554 2.80636 4.05595
1 3.26132 4.82128 6.60606
1 3.65243 6.71957 6.94118
1 1.79126 4.18893 4.56967
1 0.654686 2.28719 8.19255
1 5.46845 4.87468 0.684016
1 1.38938 6.41331 1.68578
1 2.24698 8.33215 8.14398
1 6.60706 2.93032 7.66905
1 3.24902 2.37866 4.92978
1 4.13744 4.3195 0.187182
1 7.62319 0.682353 2.03526
1 3.42536 4.8939 4.64652
1 4.2339 1.05683 1.38307
1 8.09286 3.37843 1.57786
1 4.54582 4.78312 1.06526
1 8.60021 5.71101 0.494609
1 7.11176 3.19676 4.11886
1 0.208934 3.12732 7.80224
1 3.9385 5.55999 6.33001
1 6.27362 6.7767 2.89965